+ 0.1 0 1 tcp 40 ------- 0 0.0 1.0 0 0
- 0.1 0 1 tcp 40 ------- 0 0.0 1.0 0 0
r 0.10416 0 1 tcp 40 ------- 0 0.0 1.0 0 0
+ 0.10416 1 0 ack 40 ------- 0 1.0 0.0 0 1
- 0.10416 1 0 ack 40 ------- 0 1.0 0.0 0 1
r 0.10832 1 0 ack 40 ------- 0 1.0 0.0 0 1
+ 0.10832 0 1 tcp 1040 ------- 0 0.0 1.0 1 2
- 0.10832 0 1 tcp 1040 ------- 0 0.0 1.0 1 2
+ 0.10832 0 1 tcp 1040 ------- 0 0.0 1.0 2 3
- 0.11248 0 1 tcp 1040 ------- 0 0.0 1.0 2 3
r 0.11648 0 1 tcp 1040 ------- 0 0.0 1.0 1 2
+ 0.11648 1 0 ack 40 ------- 0 1.0 0.0 1 4
- 0.11648 1 0 ack 40 ------- 0 1.0 0.0 1 4
r 0.12064 0 1 tcp 1040 ------- 0 0.0 1.0 2 3
+ 0.12064 1 0 ack 40 ------- 0 1.0 0.0 2 5
- 0.12064 1 0 ack 40 ------- 0 1.0 0.0 2 5
r 0.12064 1 0 ack 40 ------- 0 1.0 0.0 1 4
+ 0.12064 0 1 tcp 1040 ------- 0 0.0 1.0 3 6
- 0.12064 0 1 tcp 1040 ------- 0 0.0 1.0 3 6
+ 0.12064 0 1 tcp 1040 ------- 0 0.0 1.0 4 7
r 0.1248 1 0 ack 40 ------- 0 1.0 0.0 2 5
+ 0.1248 0 1 tcp 1040 ------- 0 0.0 1.0 5 8
+ 0.1248 0 1 tcp 1040 ------- 0 0.0 1.0 6 9
- 0.1248 0 1 tcp 1040 ------- 0 0.0 1.0 4 7
r 0.1288 0 1 tcp 1040 ------- 0 0.0 1.0 3 6
+ 0.1288 1 0 ack 40 ------- 0 1.0 0.0 3 10
- 0.1288 1 0 ack 40 ------- 0 1.0 0.0 3 10
- 0.12896 0 1 tcp 1040 ------- 0 0.0 1.0 5 8
r 0.13296 0 1 tcp 1040 ------- 0 0.0 1.0 4 7
+ 0.13296 1 0 ack 40 ------- 0 1.0 0.0 4 11
- 0.13296 1 0 ack 40 ------- 0 1.0 0.0 4 11
r 0.13296 1 0 ack 40 ------- 0 1.0 0.0 3 10
+ 0.13296 0 1 tcp 1040 ------- 0 0.0 1.0 7 12
+ 0.13296 0 1 tcp 1040 ------- 0 0.0 1.0 8 13
- 0.13312 0 1 tcp 1040 ------- 0 0.0 1.0 6 9
r 0.13712 0 1 tcp 1040 ------- 0 0.0 1.0 5 8
+ 0.13712 1 0 ack 40 ------- 0 1.0 0.0 5 14
- 0.13712 1 0 ack 40 ------- 0 1.0 0.0 5 14
r 0.13712 1 0 ack 40 ------- 0 1.0 0.0 4 11
+ 0.13712 0 1 tcp 1040 ------- 0 0.0 1.0 9 15
+ 0.13712 0 1 tcp 1040 ------- 0 0.0 1.0 10 16
- 0.13728 0 1 tcp 1040 ------- 0 0.0 1.0 7 12
r 0.14128 0 1 tcp 1040 ------- 0 0.0 1.0 6 9
+ 0.14128 1 0 ack 40 ------- 0 1.0 0.0 6 17
- 0.14128 1 0 ack 40 ------- 0 1.0 0.0 6 17
r 0.14128 1 0 ack 40 ------- 0 1.0 0.0 5 14
+ 0.14128 0 1 tcp 1040 ------- 0 0.0 1.0 11 18
+ 0.14128 0 1 tcp 1040 ------- 0 0.0 1.0 12 19
- 0.14144 0 1 tcp 1040 ------- 0 0.0 1.0 8 13
r 0.14544 0 1 tcp 1040 ------- 0 0.0 1.0 7 12
+ 0.14544 1 0 ack 40 ------- 0 1.0 0.0 7 20
- 0.14544 1 0 ack 40 ------- 0 1.0 0.0 7 20
r 0.14544 1 0 ack 40 ------- 0 1.0 0.0 6 17
+ 0.14544 0 1 tcp 1040 ------- 0 0.0 1.0 13 21
+ 0.14544 0 1 tcp 1040 ------- 0 0.0 1.0 14 22
- 0.1456 0 1 tcp 1040 ------- 0 0.0 1.0 9 15
r 0.1496 0 1 tcp 1040 ------- 0 0.0 1.0 8 13
+ 0.1496 1 0 ack 40 ------- 0 1.0 0.0 8 23
- 0.1496 1 0 ack 40 ------- 0 1.0 0.0 8 23
r 0.1496 1 0 ack 40 ------- 0 1.0 0.0 7 20
+ 0.1496 0 1 tcp 1040 ------- 0 0.0 1.0 15 24
+ 0.1496 0 1 tcp 1040 ------- 0 0.0 1.0 16 25
- 0.14976 0 1 tcp 1040 ------- 0 0.0 1.0 10 16
r 0.15376 0 1 tcp 1040 ------- 0 0.0 1.0 9 15
+ 0.15376 1 0 ack 40 ------- 0 1.0 0.0 9 26
- 0.15376 1 0 ack 40 ------- 0 1.0 0.0 9 26
r 0.15376 1 0 ack 40 ------- 0 1.0 0.0 8 23
+ 0.15376 0 1 tcp 1040 ------- 0 0.0 1.0 17 27
+ 0.15376 0 1 tcp 1040 ------- 0 0.0 1.0 18 28
- 0.15392 0 1 tcp 1040 ------- 0 0.0 1.0 11 18
r 0.15792 0 1 tcp 1040 ------- 0 0.0 1.0 10 16
+ 0.15792 1 0 ack 40 ------- 0 1.0 0.0 10 29
- 0.15792 1 0 ack 40 ------- 0 1.0 0.0 10 29
r 0.15792 1 0 ack 40 ------- 0 1.0 0.0 9 26
+ 0.15792 0 1 tcp 1040 ------- 0 0.0 1.0 19 30
+ 0.15792 0 1 tcp 1040 ------- 0 0.0 1.0 20 31
- 0.15808 0 1 tcp 1040 ------- 0 0.0 1.0 12 19
r 0.16208 0 1 tcp 1040 ------- 0 0.0 1.0 11 18
+ 0.16208 1 0 ack 40 ------- 0 1.0 0.0 11 32
- 0.16208 1 0 ack 40 ------- 0 1.0 0.0 11 32
r 0.16208 1 0 ack 40 ------- 0 1.0 0.0 10 29
+ 0.16208 0 1 tcp 1040 ------- 0 0.0 1.0 21 33
+ 0.16208 0 1 tcp 1040 ------- 0 0.0 1.0 22 34
- 0.16224 0 1 tcp 1040 ------- 0 0.0 1.0 13 21
r 0.16624 0 1 tcp 1040 ------- 0 0.0 1.0 12 19
+ 0.16624 1 0 ack 40 ------- 0 1.0 0.0 12 35
- 0.16624 1 0 ack 40 ------- 0 1.0 0.0 12 35
r 0.16624 1 0 ack 40 ------- 0 1.0 0.0 11 32
+ 0.16624 0 1 tcp 1040 ------- 0 0.0 1.0 23 36
+ 0.16624 0 1 tcp 1040 ------- 0 0.0 1.0 24 37
- 0.1664 0 1 tcp 1040 ------- 0 0.0 1.0 14 22
r 0.1704 0 1 tcp 1040 ------- 0 0.0 1.0 13 21
+ 0.1704 1 0 ack 40 ------- 0 1.0 0.0 13 38
- 0.1704 1 0 ack 40 ------- 0 1.0 0.0 13 38
r 0.1704 1 0 ack 40 ------- 0 1.0 0.0 12 35
+ 0.1704 0 1 tcp 1040 ------- 0 0.0 1.0 25 39
+ 0.1704 0 1 tcp 1040 ------- 0 0.0 1.0 26 40
- 0.17056 0 1 tcp 1040 ------- 0 0.0 1.0 15 24
r 0.17456 0 1 tcp 1040 ------- 0 0.0 1.0 14 22
+ 0.17456 1 0 ack 40 ------- 0 1.0 0.0 14 41
- 0.17456 1 0 ack 40 ------- 0 1.0 0.0 14 41
r 0.17456 1 0 ack 40 ------- 0 1.0 0.0 13 38
+ 0.17456 0 1 tcp 1040 ------- 0 0.0 1.0 27 42
+ 0.17456 0 1 tcp 1040 ------- 0 0.0 1.0 28 43
- 0.17472 0 1 tcp 1040 ------- 0 0.0 1.0 16 25
r 0.17872 0 1 tcp 1040 ------- 0 0.0 1.0 15 24
+ 0.17872 1 0 ack 40 ------- 0 1.0 0.0 15 44
- 0.17872 1 0 ack 40 ------- 0 1.0 0.0 15 44
r 0.17872 1 0 ack 40 ------- 0 1.0 0.0 14 41
+ 0.17872 0 1 tcp 1040 ------- 0 0.0 1.0 29 45
+ 0.17872 0 1 tcp 1040 ------- 0 0.0 1.0 30 46
- 0.17888 0 1 tcp 1040 ------- 0 0.0 1.0 17 27
r 0.18288 0 1 tcp 1040 ------- 0 0.0 1.0 16 25
+ 0.18288 1 0 ack 40 ------- 0 1.0 0.0 16 47
- 0.18288 1 0 ack 40 ------- 0 1.0 0.0 16 47
r 0.18288 1 0 ack 40 ------- 0 1.0 0.0 15 44
+ 0.18288 0 1 tcp 1040 ------- 0 0.0 1.0 31 48
+ 0.18288 0 1 tcp 1040 ------- 0 0.0 1.0 32 49
- 0.18304 0 1 tcp 1040 ------- 0 0.0 1.0 18 28
r 0.18704 0 1 tcp 1040 ------- 0 0.0 1.0 17 27
+ 0.18704 1 0 ack 40 ------- 0 1.0 0.0 17 50
- 0.18704 1 0 ack 40 ------- 0 1.0 0.0 17 50
r 0.18704 1 0 ack 40 ------- 0 1.0 0.0 16 47
+ 0.18704 0 1 tcp 1040 ------- 0 0.0 1.0 33 51
+ 0.18704 0 1 tcp 1040 ------- 0 0.0 1.0 34 52
- 0.1872 0 1 tcp 1040 ------- 0 0.0 1.0 19 30
r 0.1912 0 1 tcp 1040 ------- 0 0.0 1.0 18 28
+ 0.1912 1 0 ack 40 ------- 0 1.0 0.0 18 53
- 0.1912 1 0 ack 40 ------- 0 1.0 0.0 18 53
r 0.1912 1 0 ack 40 ------- 0 1.0 0.0 17 50
+ 0.1912 0 1 tcp 1040 ------- 0 0.0 1.0 35 54
+ 0.1912 0 1 tcp 1040 ------- 0 0.0 1.0 36 55
- 0.19136 0 1 tcp 1040 ------- 0 0.0 1.0 20 31
r 0.19536 0 1 tcp 1040 ------- 0 0.0 1.0 19 30
+ 0.19536 1 0 ack 40 ------- 0 1.0 0.0 19 56
- 0.19536 1 0 ack 40 ------- 0 1.0 0.0 19 56
r 0.19536 1 0 ack 40 ------- 0 1.0 0.0 18 53
+ 0.19536 0 1 tcp 1040 ------- 0 0.0 1.0 37 57
+ 0.19536 0 1 tcp 1040 ------- 0 0.0 1.0 38 58
- 0.19552 0 1 tcp 1040 ------- 0 0.0 1.0 21 33
r 0.19952 0 1 tcp 1040 ------- 0 0.0 1.0 20 31
+ 0.19952 1 0 ack 40 ------- 0 1.0 0.0 20 59
- 0.19952 1 0 ack 40 ------- 0 1.0 0.0 20 59
r 0.19952 1 0 ack 40 ------- 0 1.0 0.0 19 56
+ 0.19952 0 1 tcp 1040 ------- 0 0.0 1.0 39 60
- 0.19968 0 1 tcp 1040 ------- 0 0.0 1.0 22 34
r 0.20368 0 1 tcp 1040 ------- 0 0.0 1.0 21 33
+ 0.20368 1 0 ack 40 ------- 0 1.0 0.0 21 61
- 0.20368 1 0 ack 40 ------- 0 1.0 0.0 21 61
r 0.20368 1 0 ack 40 ------- 0 1.0 0.0 20 59
+ 0.20368 0 1 tcp 1040 ------- 0 0.0 1.0 40 62
- 0.20384 0 1 tcp 1040 ------- 0 0.0 1.0 23 36
r 0.20784 0 1 tcp 1040 ------- 0 0.0 1.0 22 34
+ 0.20784 1 0 ack 40 ------- 0 1.0 0.0 22 63
- 0.20784 1 0 ack 40 ------- 0 1.0 0.0 22 63
r 0.20784 1 0 ack 40 ------- 0 1.0 0.0 21 61
+ 0.20784 0 1 tcp 1040 ------- 0 0.0 1.0 41 64
- 0.208 0 1 tcp 1040 ------- 0 0.0 1.0 24 37
r 0.212 0 1 tcp 1040 ------- 0 0.0 1.0 23 36
+ 0.212 1 0 ack 40 ------- 0 1.0 0.0 23 65
- 0.212 1 0 ack 40 ------- 0 1.0 0.0 23 65
r 0.212 1 0 ack 40 ------- 0 1.0 0.0 22 63
+ 0.212 0 1 tcp 1040 ------- 0 0.0 1.0 42 66
- 0.21216 0 1 tcp 1040 ------- 0 0.0 1.0 25 39
r 0.21616 0 1 tcp 1040 ------- 0 0.0 1.0 24 37
+ 0.21616 1 0 ack 40 ------- 0 1.0 0.0 24 67
- 0.21616 1 0 ack 40 ------- 0 1.0 0.0 24 67
r 0.21616 1 0 ack 40 ------- 0 1.0 0.0 23 65
+ 0.21616 0 1 tcp 1040 ------- 0 0.0 1.0 43 68
- 0.21632 0 1 tcp 1040 ------- 0 0.0 1.0 26 40
r 0.22032 0 1 tcp 1040 ------- 0 0.0 1.0 25 39
+ 0.22032 1 0 ack 40 ------- 0 1.0 0.0 25 69
- 0.22032 1 0 ack 40 ------- 0 1.0 0.0 25 69
r 0.22032 1 0 ack 40 ------- 0 1.0 0.0 24 67
+ 0.22032 0 1 tcp 1040 ------- 0 0.0 1.0 44 70
- 0.22048 0 1 tcp 1040 ------- 0 0.0 1.0 27 42
r 0.22448 0 1 tcp 1040 ------- 0 0.0 1.0 26 40
+ 0.22448 1 0 ack 40 ------- 0 1.0 0.0 26 71
- 0.22448 1 0 ack 40 ------- 0 1.0 0.0 26 71
r 0.22448 1 0 ack 40 ------- 0 1.0 0.0 25 69
+ 0.22448 0 1 tcp 1040 ------- 0 0.0 1.0 45 72
- 0.22464 0 1 tcp 1040 ------- 0 0.0 1.0 28 43
r 0.22864 0 1 tcp 1040 ------- 0 0.0 1.0 27 42
+ 0.22864 1 0 ack 40 ------- 0 1.0 0.0 27 73
- 0.22864 1 0 ack 40 ------- 0 1.0 0.0 27 73
r 0.22864 1 0 ack 40 ------- 0 1.0 0.0 26 71
+ 0.22864 0 1 tcp 1040 ------- 0 0.0 1.0 46 74
- 0.2288 0 1 tcp 1040 ------- 0 0.0 1.0 29 45
r 0.2328 0 1 tcp 1040 ------- 0 0.0 1.0 28 43
+ 0.2328 1 0 ack 40 ------- 0 1.0 0.0 28 75
- 0.2328 1 0 ack 40 ------- 0 1.0 0.0 28 75
r 0.2328 1 0 ack 40 ------- 0 1.0 0.0 27 73
+ 0.2328 0 1 tcp 1040 ------- 0 0.0 1.0 47 76
- 0.23296 0 1 tcp 1040 ------- 0 0.0 1.0 30 46
r 0.23696 0 1 tcp 1040 ------- 0 0.0 1.0 29 45
+ 0.23696 1 0 ack 40 ------- 0 1.0 0.0 29 77
- 0.23696 1 0 ack 40 ------- 0 1.0 0.0 29 77
r 0.23696 1 0 ack 40 ------- 0 1.0 0.0 28 75
+ 0.23696 0 1 tcp 1040 ------- 0 0.0 1.0 48 78
- 0.23712 0 1 tcp 1040 ------- 0 0.0 1.0 31 48
r 0.24112 0 1 tcp 1040 ------- 0 0.0 1.0 30 46
+ 0.24112 1 0 ack 40 ------- 0 1.0 0.0 30 79
- 0.24112 1 0 ack 40 ------- 0 1.0 0.0 30 79
r 0.24112 1 0 ack 40 ------- 0 1.0 0.0 29 77
+ 0.24112 0 1 tcp 1040 ------- 0 0.0 1.0 49 80
- 0.24128 0 1 tcp 1040 ------- 0 0.0 1.0 32 49
r 0.24528 0 1 tcp 1040 ------- 0 0.0 1.0 31 48
+ 0.24528 1 0 ack 40 ------- 0 1.0 0.0 31 81
- 0.24528 1 0 ack 40 ------- 0 1.0 0.0 31 81
r 0.24528 1 0 ack 40 ------- 0 1.0 0.0 30 79
+ 0.24528 0 1 tcp 1040 ------- 0 0.0 1.0 50 82
- 0.24544 0 1 tcp 1040 ------- 0 0.0 1.0 33 51
r 0.24944 0 1 tcp 1040 ------- 0 0.0 1.0 32 49
+ 0.24944 1 0 ack 40 ------- 0 1.0 0.0 32 83
- 0.24944 1 0 ack 40 ------- 0 1.0 0.0 32 83
r 0.24944 1 0 ack 40 ------- 0 1.0 0.0 31 81
+ 0.24944 0 1 tcp 1040 ------- 0 0.0 1.0 51 84
- 0.2496 0 1 tcp 1040 ------- 0 0.0 1.0 34 52
r 0.2536 0 1 tcp 1040 ------- 0 0.0 1.0 33 51
+ 0.2536 1 0 ack 40 ------- 0 1.0 0.0 33 85
- 0.2536 1 0 ack 40 ------- 0 1.0 0.0 33 85
r 0.2536 1 0 ack 40 ------- 0 1.0 0.0 32 83
+ 0.2536 0 1 tcp 1040 ------- 0 0.0 1.0 52 86
- 0.25376 0 1 tcp 1040 ------- 0 0.0 1.0 35 54
r 0.25776 0 1 tcp 1040 ------- 0 0.0 1.0 34 52
+ 0.25776 1 0 ack 40 ------- 0 1.0 0.0 34 87
- 0.25776 1 0 ack 40 ------- 0 1.0 0.0 34 87
r 0.25776 1 0 ack 40 ------- 0 1.0 0.0 33 85
+ 0.25776 0 1 tcp 1040 ------- 0 0.0 1.0 53 88
- 0.25792 0 1 tcp 1040 ------- 0 0.0 1.0 36 55
r 0.26192 1 0 ack 40 ------- 0 1.0 0.0 34 87
+ 0.26192 0 1 tcp 1040 ------- 0 0.0 1.0 54 89
r 0.26192 0 1 tcp 1040 ------- 0 0.0 1.0 35 54
+ 0.26192 1 0 ack 40 ------- 0 1.0 0.0 35 90
- 0.26192 1 0 ack 40 ------- 0 1.0 0.0 35 90
- 0.26208 0 1 tcp 1040 ------- 0 0.0 1.0 37 57
r 0.26608 0 1 tcp 1040 ------- 0 0.0 1.0 36 55
+ 0.26608 1 0 ack 40 ------- 0 1.0 0.0 36 91
- 0.26608 1 0 ack 40 ------- 0 1.0 0.0 36 91
r 0.26608 1 0 ack 40 ------- 0 1.0 0.0 35 90
+ 0.26608 0 1 tcp 1040 ------- 0 0.0 1.0 55 92
- 0.26624 0 1 tcp 1040 ------- 0 0.0 1.0 38 58
r 0.27024 0 1 tcp 1040 ------- 0 0.0 1.0 37 57
+ 0.27024 1 0 ack 40 ------- 0 1.0 0.0 37 93
- 0.27024 1 0 ack 40 ------- 0 1.0 0.0 37 93
r 0.27024 1 0 ack 40 ------- 0 1.0 0.0 36 91
+ 0.27024 0 1 tcp 1040 ------- 0 0.0 1.0 56 94
- 0.2704 0 1 tcp 1040 ------- 0 0.0 1.0 39 60
r 0.2744 0 1 tcp 1040 ------- 0 0.0 1.0 38 58
+ 0.2744 1 0 ack 40 ------- 0 1.0 0.0 38 95
- 0.2744 1 0 ack 40 ------- 0 1.0 0.0 38 95
r 0.2744 1 0 ack 40 ------- 0 1.0 0.0 37 93
+ 0.2744 0 1 tcp 1040 ------- 0 0.0 1.0 57 96
- 0.27456 0 1 tcp 1040 ------- 0 0.0 1.0 40 62
r 0.27856 0 1 tcp 1040 ------- 0 0.0 1.0 39 60
+ 0.27856 1 0 ack 40 ------- 0 1.0 0.0 39 97
- 0.27856 1 0 ack 40 ------- 0 1.0 0.0 39 97
r 0.27856 1 0 ack 40 ------- 0 1.0 0.0 38 95
+ 0.27856 0 1 tcp 1040 ------- 0 0.0 1.0 58 98
- 0.27872 0 1 tcp 1040 ------- 0 0.0 1.0 41 64
r 0.28272 0 1 tcp 1040 ------- 0 0.0 1.0 40 62
+ 0.28272 1 0 ack 40 ------- 0 1.0 0.0 40 99
- 0.28272 1 0 ack 40 ------- 0 1.0 0.0 40 99
r 0.28272 1 0 ack 40 ------- 0 1.0 0.0 39 97
+ 0.28272 0 1 tcp 1040 ------- 0 0.0 1.0 59 100
- 0.28288 0 1 tcp 1040 ------- 0 0.0 1.0 42 66
r 0.28688 0 1 tcp 1040 ------- 0 0.0 1.0 41 64
+ 0.28688 1 0 ack 40 ------- 0 1.0 0.0 41 101
- 0.28688 1 0 ack 40 ------- 0 1.0 0.0 41 101
r 0.28688 1 0 ack 40 ------- 0 1.0 0.0 40 99
+ 0.28688 0 1 tcp 1040 ------- 0 0.0 1.0 60 102
- 0.28704 0 1 tcp 1040 ------- 0 0.0 1.0 43 68
r 0.29104 0 1 tcp 1040 ------- 0 0.0 1.0 42 66
+ 0.29104 1 0 ack 40 ------- 0 1.0 0.0 42 103
- 0.29104 1 0 ack 40 ------- 0 1.0 0.0 42 103
r 0.29104 1 0 ack 40 ------- 0 1.0 0.0 41 101
+ 0.29104 0 1 tcp 1040 ------- 0 0.0 1.0 61 104
- 0.2912 0 1 tcp 1040 ------- 0 0.0 1.0 44 70
r 0.2952 0 1 tcp 1040 ------- 0 0.0 1.0 43 68
+ 0.2952 1 0 ack 40 ------- 0 1.0 0.0 43 105
- 0.2952 1 0 ack 40 ------- 0 1.0 0.0 43 105
r 0.2952 1 0 ack 40 ------- 0 1.0 0.0 42 103
+ 0.2952 0 1 tcp 1040 ------- 0 0.0 1.0 62 106
- 0.29536 0 1 tcp 1040 ------- 0 0.0 1.0 45 72
r 0.29936 0 1 tcp 1040 ------- 0 0.0 1.0 44 70
+ 0.29936 1 0 ack 40 ------- 0 1.0 0.0 44 107
- 0.29936 1 0 ack 40 ------- 0 1.0 0.0 44 107
r 0.29936 1 0 ack 40 ------- 0 1.0 0.0 43 105
+ 0.29936 0 1 tcp 1040 ------- 0 0.0 1.0 63 108
- 0.29952 0 1 tcp 1040 ------- 0 0.0 1.0 46 74
r 0.30352 0 1 tcp 1040 ------- 0 0.0 1.0 45 72
+ 0.30352 1 0 ack 40 ------- 0 1.0 0.0 45 109
- 0.30352 1 0 ack 40 ------- 0 1.0 0.0 45 109
r 0.30352 1 0 ack 40 ------- 0 1.0 0.0 44 107
+ 0.30352 0 1 tcp 1040 ------- 0 0.0 1.0 64 110
- 0.30368 0 1 tcp 1040 ------- 0 0.0 1.0 47 76
r 0.30768 0 1 tcp 1040 ------- 0 0.0 1.0 46 74
+ 0.30768 1 0 ack 40 ------- 0 1.0 0.0 46 111
- 0.30768 1 0 ack 40 ------- 0 1.0 0.0 46 111
r 0.30768 1 0 ack 40 ------- 0 1.0 0.0 45 109
+ 0.30768 0 1 tcp 1040 ------- 0 0.0 1.0 65 112
- 0.30784 0 1 tcp 1040 ------- 0 0.0 1.0 48 78
r 0.31184 0 1 tcp 1040 ------- 0 0.0 1.0 47 76
+ 0.31184 1 0 ack 40 ------- 0 1.0 0.0 47 113
- 0.31184 1 0 ack 40 ------- 0 1.0 0.0 47 113
r 0.31184 1 0 ack 40 ------- 0 1.0 0.0 46 111
+ 0.31184 0 1 tcp 1040 ------- 0 0.0 1.0 66 114
- 0.312 0 1 tcp 1040 ------- 0 0.0 1.0 49 80
r 0.316 0 1 tcp 1040 ------- 0 0.0 1.0 48 78
+ 0.316 1 0 ack 40 ------- 0 1.0 0.0 48 115
- 0.316 1 0 ack 40 ------- 0 1.0 0.0 48 115
r 0.316 1 0 ack 40 ------- 0 1.0 0.0 47 113
+ 0.316 0 1 tcp 1040 ------- 0 0.0 1.0 67 116
- 0.31616 0 1 tcp 1040 ------- 0 0.0 1.0 50 82
r 0.32016 0 1 tcp 1040 ------- 0 0.0 1.0 49 80
+ 0.32016 1 0 ack 40 ------- 0 1.0 0.0 49 117
- 0.32016 1 0 ack 40 ------- 0 1.0 0.0 49 117
r 0.32016 1 0 ack 40 ------- 0 1.0 0.0 48 115
+ 0.32016 0 1 tcp 1040 ------- 0 0.0 1.0 68 118
- 0.32032 0 1 tcp 1040 ------- 0 0.0 1.0 51 84
r 0.32432 0 1 tcp 1040 ------- 0 0.0 1.0 50 82
+ 0.32432 1 0 ack 40 ------- 0 1.0 0.0 50 119
- 0.32432 1 0 ack 40 ------- 0 1.0 0.0 50 119
r 0.32432 1 0 ack 40 ------- 0 1.0 0.0 49 117
+ 0.32432 0 1 tcp 1040 ------- 0 0.0 1.0 69 120
- 0.32448 0 1 tcp 1040 ------- 0 0.0 1.0 52 86
r 0.32848 0 1 tcp 1040 ------- 0 0.0 1.0 51 84
+ 0.32848 1 0 ack 40 ------- 0 1.0 0.0 51 121
- 0.32848 1 0 ack 40 ------- 0 1.0 0.0 51 121
r 0.32848 1 0 ack 40 ------- 0 1.0 0.0 50 119
+ 0.32848 0 1 tcp 1040 ------- 0 0.0 1.0 70 122
- 0.32864 0 1 tcp 1040 ------- 0 0.0 1.0 53 88
r 0.33264 0 1 tcp 1040 ------- 0 0.0 1.0 52 86
+ 0.33264 1 0 ack 40 ------- 0 1.0 0.0 52 123
- 0.33264 1 0 ack 40 ------- 0 1.0 0.0 52 123
r 0.33264 1 0 ack 40 ------- 0 1.0 0.0 51 121
+ 0.33264 0 1 tcp 1040 ------- 0 0.0 1.0 71 124
- 0.3328 0 1 tcp 1040 ------- 0 0.0 1.0 54 89
r 0.3368 0 1 tcp 1040 ------- 0 0.0 1.0 53 88
+ 0.3368 1 0 ack 40 ------- 0 1.0 0.0 53 125
- 0.3368 1 0 ack 40 ------- 0 1.0 0.0 53 125
r 0.3368 1 0 ack 40 ------- 0 1.0 0.0 52 123
+ 0.3368 0 1 tcp 1040 ------- 0 0.0 1.0 72 126
- 0.33696 0 1 tcp 1040 ------- 0 0.0 1.0 55 92
r 0.34096 0 1 tcp 1040 ------- 0 0.0 1.0 54 89
+ 0.34096 1 0 ack 40 ------- 0 1.0 0.0 54 127
- 0.34096 1 0 ack 40 ------- 0 1.0 0.0 54 127
r 0.34096 1 0 ack 40 ------- 0 1.0 0.0 53 125
+ 0.34096 0 1 tcp 1040 ------- 0 0.0 1.0 73 128
- 0.34112 0 1 tcp 1040 ------- 0 0.0 1.0 56 94
r 0.34512 0 1 tcp 1040 ------- 0 0.0 1.0 55 92
+ 0.34512 1 0 ack 40 ------- 0 1.0 0.0 55 129
- 0.34512 1 0 ack 40 ------- 0 1.0 0.0 55 129
r 0.34512 1 0 ack 40 ------- 0 1.0 0.0 54 127
+ 0.34512 0 1 tcp 1040 ------- 0 0.0 1.0 74 130
- 0.34528 0 1 tcp 1040 ------- 0 0.0 1.0 57 96
r 0.34928 0 1 tcp 1040 ------- 0 0.0 1.0 56 94
+ 0.34928 1 0 ack 40 ------- 0 1.0 0.0 56 131
- 0.34928 1 0 ack 40 ------- 0 1.0 0.0 56 131
r 0.34928 1 0 ack 40 ------- 0 1.0 0.0 55 129
+ 0.34928 0 1 tcp 1040 ------- 0 0.0 1.0 75 132
- 0.34944 0 1 tcp 1040 ------- 0 0.0 1.0 58 98
r 0.35344 0 1 tcp 1040 ------- 0 0.0 1.0 57 96
+ 0.35344 1 0 ack 40 ------- 0 1.0 0.0 57 133
- 0.35344 1 0 ack 40 ------- 0 1.0 0.0 57 133
r 0.35344 1 0 ack 40 ------- 0 1.0 0.0 56 131
+ 0.35344 0 1 tcp 1040 ------- 0 0.0 1.0 76 134
- 0.3536 0 1 tcp 1040 ------- 0 0.0 1.0 59 100
r 0.3576 0 1 tcp 1040 ------- 0 0.0 1.0 58 98
+ 0.3576 1 0 ack 40 ------- 0 1.0 0.0 58 135
- 0.3576 1 0 ack 40 ------- 0 1.0 0.0 58 135
r 0.3576 1 0 ack 40 ------- 0 1.0 0.0 57 133
+ 0.3576 0 1 tcp 1040 ------- 0 0.0 1.0 77 136
- 0.35776 0 1 tcp 1040 ------- 0 0.0 1.0 60 102
r 0.36176 0 1 tcp 1040 ------- 0 0.0 1.0 59 100
+ 0.36176 1 0 ack 40 ------- 0 1.0 0.0 59 137
- 0.36176 1 0 ack 40 ------- 0 1.0 0.0 59 137
r 0.36176 1 0 ack 40 ------- 0 1.0 0.0 58 135
+ 0.36176 0 1 tcp 1040 ------- 0 0.0 1.0 78 138
- 0.36192 0 1 tcp 1040 ------- 0 0.0 1.0 61 104
r 0.36592 0 1 tcp 1040 ------- 0 0.0 1.0 60 102
+ 0.36592 1 0 ack 40 ------- 0 1.0 0.0 60 139
- 0.36592 1 0 ack 40 ------- 0 1.0 0.0 60 139
r 0.36592 1 0 ack 40 ------- 0 1.0 0.0 59 137
+ 0.36592 0 1 tcp 1040 ------- 0 0.0 1.0 79 140
- 0.36608 0 1 tcp 1040 ------- 0 0.0 1.0 62 106
r 0.37008 0 1 tcp 1040 ------- 0 0.0 1.0 61 104
+ 0.37008 1 0 ack 40 ------- 0 1.0 0.0 61 141
- 0.37008 1 0 ack 40 ------- 0 1.0 0.0 61 141
r 0.37008 1 0 ack 40 ------- 0 1.0 0.0 60 139
+ 0.37008 0 1 tcp 1040 ------- 0 0.0 1.0 80 142
- 0.37024 0 1 tcp 1040 ------- 0 0.0 1.0 63 108
r 0.37424 0 1 tcp 1040 ------- 0 0.0 1.0 62 106
+ 0.37424 1 0 ack 40 ------- 0 1.0 0.0 62 143
- 0.37424 1 0 ack 40 ------- 0 1.0 0.0 62 143
r 0.37424 1 0 ack 40 ------- 0 1.0 0.0 61 141
+ 0.37424 0 1 tcp 1040 ------- 0 0.0 1.0 81 144
- 0.3744 0 1 tcp 1040 ------- 0 0.0 1.0 64 110
r 0.3784 0 1 tcp 1040 ------- 0 0.0 1.0 63 108
+ 0.3784 1 0 ack 40 ------- 0 1.0 0.0 63 145
- 0.3784 1 0 ack 40 ------- 0 1.0 0.0 63 145
r 0.3784 1 0 ack 40 ------- 0 1.0 0.0 62 143
+ 0.3784 0 1 tcp 1040 ------- 0 0.0 1.0 82 146
- 0.37856 0 1 tcp 1040 ------- 0 0.0 1.0 65 112
r 0.38256 0 1 tcp 1040 ------- 0 0.0 1.0 64 110
+ 0.38256 1 0 ack 40 ------- 0 1.0 0.0 64 147
- 0.38256 1 0 ack 40 ------- 0 1.0 0.0 64 147
r 0.38256 1 0 ack 40 ------- 0 1.0 0.0 63 145
+ 0.38256 0 1 tcp 1040 ------- 0 0.0 1.0 83 148
- 0.38272 0 1 tcp 1040 ------- 0 0.0 1.0 66 114
r 0.38672 0 1 tcp 1040 ------- 0 0.0 1.0 65 112
+ 0.38672 1 0 ack 40 ------- 0 1.0 0.0 65 149
- 0.38672 1 0 ack 40 ------- 0 1.0 0.0 65 149
r 0.38672 1 0 ack 40 ------- 0 1.0 0.0 64 147
+ 0.38672 0 1 tcp 1040 ------- 0 0.0 1.0 84 150
- 0.38688 0 1 tcp 1040 ------- 0 0.0 1.0 67 116
r 0.39088 0 1 tcp 1040 ------- 0 0.0 1.0 66 114
+ 0.39088 1 0 ack 40 ------- 0 1.0 0.0 66 151
- 0.39088 1 0 ack 40 ------- 0 1.0 0.0 66 151
r 0.39088 1 0 ack 40 ------- 0 1.0 0.0 65 149
+ 0.39088 0 1 tcp 1040 ------- 0 0.0 1.0 85 152
- 0.39104 0 1 tcp 1040 ------- 0 0.0 1.0 68 118
r 0.39504 0 1 tcp 1040 ------- 0 0.0 1.0 67 116
+ 0.39504 1 0 ack 40 ------- 0 1.0 0.0 67 153
- 0.39504 1 0 ack 40 ------- 0 1.0 0.0 67 153
r 0.39504 1 0 ack 40 ------- 0 1.0 0.0 66 151
+ 0.39504 0 1 tcp 1040 ------- 0 0.0 1.0 86 154
- 0.3952 0 1 tcp 1040 ------- 0 0.0 1.0 69 120
r 0.3992 0 1 tcp 1040 ------- 0 0.0 1.0 68 118
+ 0.3992 1 0 ack 40 ------- 0 1.0 0.0 68 155
- 0.3992 1 0 ack 40 ------- 0 1.0 0.0 68 155
r 0.3992 1 0 ack 40 ------- 0 1.0 0.0 67 153
+ 0.3992 0 1 tcp 1040 ------- 0 0.0 1.0 87 156
- 0.39936 0 1 tcp 1040 ------- 0 0.0 1.0 70 122
r 0.40336 0 1 tcp 1040 ------- 0 0.0 1.0 69 120
+ 0.40336 1 0 ack 40 ------- 0 1.0 0.0 69 157
- 0.40336 1 0 ack 40 ------- 0 1.0 0.0 69 157
r 0.40336 1 0 ack 40 ------- 0 1.0 0.0 68 155
+ 0.40336 0 1 tcp 1040 ------- 0 0.0 1.0 88 158
- 0.40352 0 1 tcp 1040 ------- 0 0.0 1.0 71 124
r 0.40752 0 1 tcp 1040 ------- 0 0.0 1.0 70 122
+ 0.40752 1 0 ack 40 ------- 0 1.0 0.0 70 159
- 0.40752 1 0 ack 40 ------- 0 1.0 0.0 70 159
r 0.40752 1 0 ack 40 ------- 0 1.0 0.0 69 157
+ 0.40752 0 1 tcp 1040 ------- 0 0.0 1.0 89 160
- 0.40768 0 1 tcp 1040 ------- 0 0.0 1.0 72 126
r 0.41168 0 1 tcp 1040 ------- 0 0.0 1.0 71 124
+ 0.41168 1 0 ack 40 ------- 0 1.0 0.0 71 161
- 0.41168 1 0 ack 40 ------- 0 1.0 0.0 71 161
r 0.41168 1 0 ack 40 ------- 0 1.0 0.0 70 159
+ 0.41168 0 1 tcp 1040 ------- 0 0.0 1.0 90 162
- 0.41184 0 1 tcp 1040 ------- 0 0.0 1.0 73 128
r 0.41584 0 1 tcp 1040 ------- 0 0.0 1.0 72 126
+ 0.41584 1 0 ack 40 ------- 0 1.0 0.0 72 163
- 0.41584 1 0 ack 40 ------- 0 1.0 0.0 72 163
r 0.41584 1 0 ack 40 ------- 0 1.0 0.0 71 161
+ 0.41584 0 1 tcp 1040 ------- 0 0.0 1.0 91 164
- 0.416 0 1 tcp 1040 ------- 0 0.0 1.0 74 130
r 0.42 0 1 tcp 1040 ------- 0 0.0 1.0 73 128
+ 0.42 1 0 ack 40 ------- 0 1.0 0.0 73 165
- 0.42 1 0 ack 40 ------- 0 1.0 0.0 73 165
r 0.42 1 0 ack 40 ------- 0 1.0 0.0 72 163
+ 0.42 0 1 tcp 1040 ------- 0 0.0 1.0 92 166
- 0.42016 0 1 tcp 1040 ------- 0 0.0 1.0 75 132
r 0.42416 0 1 tcp 1040 ------- 0 0.0 1.0 74 130
+ 0.42416 1 0 ack 40 ------- 0 1.0 0.0 74 167
- 0.42416 1 0 ack 40 ------- 0 1.0 0.0 74 167
r 0.42416 1 0 ack 40 ------- 0 1.0 0.0 73 165
+ 0.42416 0 1 tcp 1040 ------- 0 0.0 1.0 93 168
- 0.42432 0 1 tcp 1040 ------- 0 0.0 1.0 76 134
r 0.42832 0 1 tcp 1040 ------- 0 0.0 1.0 75 132
+ 0.42832 1 0 ack 40 ------- 0 1.0 0.0 75 169
- 0.42832 1 0 ack 40 ------- 0 1.0 0.0 75 169
r 0.42832 1 0 ack 40 ------- 0 1.0 0.0 74 167
+ 0.42832 0 1 tcp 1040 ------- 0 0.0 1.0 94 170
- 0.42848 0 1 tcp 1040 ------- 0 0.0 1.0 77 136
r 0.43248 0 1 tcp 1040 ------- 0 0.0 1.0 76 134
+ 0.43248 1 0 ack 40 ------- 0 1.0 0.0 76 171
- 0.43248 1 0 ack 40 ------- 0 1.0 0.0 76 171
r 0.43248 1 0 ack 40 ------- 0 1.0 0.0 75 169
+ 0.43248 0 1 tcp 1040 ------- 0 0.0 1.0 95 172
- 0.43264 0 1 tcp 1040 ------- 0 0.0 1.0 78 138
r 0.43664 0 1 tcp 1040 ------- 0 0.0 1.0 77 136
+ 0.43664 1 0 ack 40 ------- 0 1.0 0.0 77 173
- 0.43664 1 0 ack 40 ------- 0 1.0 0.0 77 173
r 0.43664 1 0 ack 40 ------- 0 1.0 0.0 76 171
+ 0.43664 0 1 tcp 1040 ------- 0 0.0 1.0 96 174
- 0.4368 0 1 tcp 1040 ------- 0 0.0 1.0 79 140
r 0.4408 0 1 tcp 1040 ------- 0 0.0 1.0 78 138
+ 0.4408 1 0 ack 40 ------- 0 1.0 0.0 78 175
- 0.4408 1 0 ack 40 ------- 0 1.0 0.0 78 175
r 0.4408 1 0 ack 40 ------- 0 1.0 0.0 77 173
+ 0.4408 0 1 tcp 1040 ------- 0 0.0 1.0 97 176
- 0.44096 0 1 tcp 1040 ------- 0 0.0 1.0 80 142
r 0.44496 0 1 tcp 1040 ------- 0 0.0 1.0 79 140
+ 0.44496 1 0 ack 40 ------- 0 1.0 0.0 79 177
- 0.44496 1 0 ack 40 ------- 0 1.0 0.0 79 177
r 0.44496 1 0 ack 40 ------- 0 1.0 0.0 78 175
+ 0.44496 0 1 tcp 1040 ------- 0 0.0 1.0 98 178
- 0.44512 0 1 tcp 1040 ------- 0 0.0 1.0 81 144
r 0.44912 0 1 tcp 1040 ------- 0 0.0 1.0 80 142
+ 0.44912 1 0 ack 40 ------- 0 1.0 0.0 80 179
- 0.44912 1 0 ack 40 ------- 0 1.0 0.0 80 179
r 0.44912 1 0 ack 40 ------- 0 1.0 0.0 79 177
+ 0.44912 0 1 tcp 1040 ------- 0 0.0 1.0 99 180
- 0.44928 0 1 tcp 1040 ------- 0 0.0 1.0 82 146
r 0.45328 0 1 tcp 1040 ------- 0 0.0 1.0 81 144
+ 0.45328 1 0 ack 40 ------- 0 1.0 0.0 81 181
- 0.45328 1 0 ack 40 ------- 0 1.0 0.0 81 181
r 0.45328 1 0 ack 40 ------- 0 1.0 0.0 80 179
+ 0.45328 0 1 tcp 1040 ------- 0 0.0 1.0 100 182
- 0.45344 0 1 tcp 1040 ------- 0 0.0 1.0 83 148
r 0.45744 0 1 tcp 1040 ------- 0 0.0 1.0 82 146
+ 0.45744 1 0 ack 40 ------- 0 1.0 0.0 82 183
- 0.45744 1 0 ack 40 ------- 0 1.0 0.0 82 183
r 0.45744 1 0 ack 40 ------- 0 1.0 0.0 81 181
+ 0.45744 0 1 tcp 1040 ------- 0 0.0 1.0 101 184
- 0.4576 0 1 tcp 1040 ------- 0 0.0 1.0 84 150
r 0.4616 0 1 tcp 1040 ------- 0 0.0 1.0 83 148
+ 0.4616 1 0 ack 40 ------- 0 1.0 0.0 83 185
- 0.4616 1 0 ack 40 ------- 0 1.0 0.0 83 185
r 0.4616 1 0 ack 40 ------- 0 1.0 0.0 82 183
+ 0.4616 0 1 tcp 1040 ------- 0 0.0 1.0 102 186
- 0.46176 0 1 tcp 1040 ------- 0 0.0 1.0 85 152
r 0.46576 0 1 tcp 1040 ------- 0 0.0 1.0 84 150
+ 0.46576 1 0 ack 40 ------- 0 1.0 0.0 84 187
- 0.46576 1 0 ack 40 ------- 0 1.0 0.0 84 187
r 0.46576 1 0 ack 40 ------- 0 1.0 0.0 83 185
+ 0.46576 0 1 tcp 1040 ------- 0 0.0 1.0 103 188
- 0.46592 0 1 tcp 1040 ------- 0 0.0 1.0 86 154
r 0.46992 0 1 tcp 1040 ------- 0 0.0 1.0 85 152
+ 0.46992 1 0 ack 40 ------- 0 1.0 0.0 85 189
- 0.46992 1 0 ack 40 ------- 0 1.0 0.0 85 189
r 0.46992 1 0 ack 40 ------- 0 1.0 0.0 84 187
+ 0.46992 0 1 tcp 1040 ------- 0 0.0 1.0 104 190
- 0.47008 0 1 tcp 1040 ------- 0 0.0 1.0 87 156
r 0.47408 0 1 tcp 1040 ------- 0 0.0 1.0 86 154
+ 0.47408 1 0 ack 40 ------- 0 1.0 0.0 86 191
- 0.47408 1 0 ack 40 ------- 0 1.0 0.0 86 191
r 0.47408 1 0 ack 40 ------- 0 1.0 0.0 85 189
+ 0.47408 0 1 tcp 1040 ------- 0 0.0 1.0 105 192
- 0.47424 0 1 tcp 1040 ------- 0 0.0 1.0 88 158
r 0.47824 0 1 tcp 1040 ------- 0 0.0 1.0 87 156
+ 0.47824 1 0 ack 40 ------- 0 1.0 0.0 87 193
- 0.47824 1 0 ack 40 ------- 0 1.0 0.0 87 193
r 0.47824 1 0 ack 40 ------- 0 1.0 0.0 86 191
+ 0.47824 0 1 tcp 1040 ------- 0 0.0 1.0 106 194
- 0.4784 0 1 tcp 1040 ------- 0 0.0 1.0 89 160
r 0.4824 0 1 tcp 1040 ------- 0 0.0 1.0 88 158
+ 0.4824 1 0 ack 40 ------- 0 1.0 0.0 88 195
- 0.4824 1 0 ack 40 ------- 0 1.0 0.0 88 195
r 0.4824 1 0 ack 40 ------- 0 1.0 0.0 87 193
+ 0.4824 0 1 tcp 1040 ------- 0 0.0 1.0 107 196
- 0.48256 0 1 tcp 1040 ------- 0 0.0 1.0 90 162
r 0.48656 0 1 tcp 1040 ------- 0 0.0 1.0 89 160
+ 0.48656 1 0 ack 40 ------- 0 1.0 0.0 89 197
- 0.48656 1 0 ack 40 ------- 0 1.0 0.0 89 197
r 0.48656 1 0 ack 40 ------- 0 1.0 0.0 88 195
+ 0.48656 0 1 tcp 1040 ------- 0 0.0 1.0 108 198
- 0.48672 0 1 tcp 1040 ------- 0 0.0 1.0 91 164
r 0.49072 0 1 tcp 1040 ------- 0 0.0 1.0 90 162
+ 0.49072 1 0 ack 40 ------- 0 1.0 0.0 90 199
- 0.49072 1 0 ack 40 ------- 0 1.0 0.0 90 199
r 0.49072 1 0 ack 40 ------- 0 1.0 0.0 89 197
+ 0.49072 0 1 tcp 1040 ------- 0 0.0 1.0 109 200
- 0.49088 0 1 tcp 1040 ------- 0 0.0 1.0 92 166
r 0.49488 0 1 tcp 1040 ------- 0 0.0 1.0 91 164
+ 0.49488 1 0 ack 40 ------- 0 1.0 0.0 91 201
- 0.49488 1 0 ack 40 ------- 0 1.0 0.0 91 201
r 0.49488 1 0 ack 40 ------- 0 1.0 0.0 90 199
+ 0.49488 0 1 tcp 1040 ------- 0 0.0 1.0 110 202
- 0.49504 0 1 tcp 1040 ------- 0 0.0 1.0 93 168
r 0.49904 0 1 tcp 1040 ------- 0 0.0 1.0 92 166
+ 0.49904 1 0 ack 40 ------- 0 1.0 0.0 92 203
- 0.49904 1 0 ack 40 ------- 0 1.0 0.0 92 203
r 0.49904 1 0 ack 40 ------- 0 1.0 0.0 91 201
+ 0.49904 0 1 tcp 1040 ------- 0 0.0 1.0 111 204
- 0.4992 0 1 tcp 1040 ------- 0 0.0 1.0 94 170
r 0.5032 0 1 tcp 1040 ------- 0 0.0 1.0 93 168
+ 0.5032 1 0 ack 40 ------- 0 1.0 0.0 93 205
- 0.5032 1 0 ack 40 ------- 0 1.0 0.0 93 205
r 0.5032 1 0 ack 40 ------- 0 1.0 0.0 92 203
+ 0.5032 0 1 tcp 1040 ------- 0 0.0 1.0 112 206
- 0.50336 0 1 tcp 1040 ------- 0 0.0 1.0 95 172
r 0.50736 0 1 tcp 1040 ------- 0 0.0 1.0 94 170
+ 0.50736 1 0 ack 40 ------- 0 1.0 0.0 94 207
- 0.50736 1 0 ack 40 ------- 0 1.0 0.0 94 207
r 0.50736 1 0 ack 40 ------- 0 1.0 0.0 93 205
+ 0.50736 0 1 tcp 1040 ------- 0 0.0 1.0 113 208
- 0.50752 0 1 tcp 1040 ------- 0 0.0 1.0 96 174
r 0.51152 0 1 tcp 1040 ------- 0 0.0 1.0 95 172
+ 0.51152 1 0 ack 40 ------- 0 1.0 0.0 95 209
- 0.51152 1 0 ack 40 ------- 0 1.0 0.0 95 209
r 0.51152 1 0 ack 40 ------- 0 1.0 0.0 94 207
+ 0.51152 0 1 tcp 1040 ------- 0 0.0 1.0 114 210
- 0.51168 0 1 tcp 1040 ------- 0 0.0 1.0 97 176
r 0.51568 1 0 ack 40 ------- 0 1.0 0.0 95 209
+ 0.51568 0 1 tcp 1040 ------- 0 0.0 1.0 115 211
r 0.51568 0 1 tcp 1040 ------- 0 0.0 1.0 96 174
+ 0.51568 1 0 ack 40 ------- 0 1.0 0.0 96 212
- 0.51568 1 0 ack 40 ------- 0 1.0 0.0 96 212
- 0.51584 0 1 tcp 1040 ------- 0 0.0 1.0 98 178
r 0.51984 0 1 tcp 1040 ------- 0 0.0 1.0 97 176
+ 0.51984 1 0 ack 40 ------- 0 1.0 0.0 97 213
- 0.51984 1 0 ack 40 ------- 0 1.0 0.0 97 213
r 0.51984 1 0 ack 40 ------- 0 1.0 0.0 96 212
+ 0.51984 0 1 tcp 1040 ------- 0 0.0 1.0 116 214
- 0.52 0 1 tcp 1040 ------- 0 0.0 1.0 99 180
r 0.524 1 0 ack 40 ------- 0 1.0 0.0 97 213
+ 0.524 0 1 tcp 1040 ------- 0 0.0 1.0 117 215
r 0.524 0 1 tcp 1040 ------- 0 0.0 1.0 98 178
+ 0.524 1 0 ack 40 ------- 0 1.0 0.0 98 216
- 0.524 1 0 ack 40 ------- 0 1.0 0.0 98 216
- 0.52416 0 1 tcp 1040 ------- 0 0.0 1.0 100 182
r 0.52816 0 1 tcp 1040 ------- 0 0.0 1.0 99 180
+ 0.52816 1 0 ack 40 ------- 0 1.0 0.0 99 217
- 0.52816 1 0 ack 40 ------- 0 1.0 0.0 99 217
r 0.52816 1 0 ack 40 ------- 0 1.0 0.0 98 216
+ 0.52816 0 1 tcp 1040 ------- 0 0.0 1.0 118 218
- 0.52832 0 1 tcp 1040 ------- 0 0.0 1.0 101 184
r 0.53232 1 0 ack 40 ------- 0 1.0 0.0 99 217
+ 0.53232 0 1 tcp 1040 ------- 0 0.0 1.0 119 219
r 0.53232 0 1 tcp 1040 ------- 0 0.0 1.0 100 182
+ 0.53232 1 0 ack 40 ------- 0 1.0 0.0 100 220
- 0.53232 1 0 ack 40 ------- 0 1.0 0.0 100 220
- 0.53248 0 1 tcp 1040 ------- 0 0.0 1.0 102 186
r 0.53648 0 1 tcp 1040 ------- 0 0.0 1.0 101 184
+ 0.53648 1 0 ack 40 ------- 0 1.0 0.0 101 221
- 0.53648 1 0 ack 40 ------- 0 1.0 0.0 101 221
r 0.53648 1 0 ack 40 ------- 0 1.0 0.0 100 220
+ 0.53648 0 1 tcp 1040 ------- 0 0.0 1.0 120 222
- 0.53664 0 1 tcp 1040 ------- 0 0.0 1.0 103 188
r 0.54064 1 0 ack 40 ------- 0 1.0 0.0 101 221
+ 0.54064 0 1 tcp 1040 ------- 0 0.0 1.0 121 223
r 0.54064 0 1 tcp 1040 ------- 0 0.0 1.0 102 186
+ 0.54064 1 0 ack 40 ------- 0 1.0 0.0 102 224
- 0.54064 1 0 ack 40 ------- 0 1.0 0.0 102 224
- 0.5408 0 1 tcp 1040 ------- 0 0.0 1.0 104 190
r 0.5448 0 1 tcp 1040 ------- 0 0.0 1.0 103 188
+ 0.5448 1 0 ack 40 ------- 0 1.0 0.0 103 225
- 0.5448 1 0 ack 40 ------- 0 1.0 0.0 103 225
r 0.5448 1 0 ack 40 ------- 0 1.0 0.0 102 224
+ 0.5448 0 1 tcp 1040 ------- 0 0.0 1.0 122 226
- 0.54496 0 1 tcp 1040 ------- 0 0.0 1.0 105 192
r 0.54896 1 0 ack 40 ------- 0 1.0 0.0 103 225
+ 0.54896 0 1 tcp 1040 ------- 0 0.0 1.0 123 227
r 0.54896 0 1 tcp 1040 ------- 0 0.0 1.0 104 190
+ 0.54896 1 0 ack 40 ------- 0 1.0 0.0 104 228