+ 1 0 1 tcp 40 ------- 0 0.0 1.0 0 0
- 1 0 1 tcp 40 ------- 0 0.0 1.0 0 0
r 1.010003 0 1 tcp 40 ------- 0 0.0 1.0 0 0
+ 1.010003 1 0 ack 40 ------- 0 1.0 0.0 0 1
- 1.010003 1 0 ack 40 ------- 0 1.0 0.0 0 1
r 1.020006 1 0 ack 40 ------- 0 1.0 0.0 0 1
+ 1.020006 0 1 tcp 1540 ------- 0 0.0 1.0 1 2
- 1.020006 0 1 tcp 1540 ------- 0 0.0 1.0 1 2
+ 1.020006 0 1 tcp 1540 ------- 0 0.0 1.0 2 3
- 1.02013 0 1 tcp 1540 ------- 0 0.0 1.0 2 3
r 1.03013 0 1 tcp 1540 ------- 0 0.0 1.0 1 2
+ 1.03013 1 0 ack 40 ------- 0 1.0 0.0 1 4
- 1.03013 1 0 ack 40 ------- 0 1.0 0.0 1 4
r 1.030253 0 1 tcp 1540 ------- 0 0.0 1.0 2 3
+ 1.030253 1 0 ack 40 ------- 0 1.0 0.0 2 5
- 1.030253 1 0 ack 40 ------- 0 1.0 0.0 2 5
r 1.040133 1 0 ack 40 ------- 0 1.0 0.0 1 4
+ 1.040133 0 1 tcp 1540 ------- 0 0.0 1.0 3 6
- 1.040133 0 1 tcp 1540 ------- 0 0.0 1.0 3 6
+ 1.040133 0 1 tcp 1540 ------- 0 0.0 1.0 4 7
r 1.040256 1 0 ack 40 ------- 0 1.0 0.0 2 5
+ 1.040256 0 1 tcp 1540 ------- 0 0.0 1.0 5 8
+ 1.040256 0 1 tcp 1540 ------- 0 0.0 1.0 6 9
- 1.040256 0 1 tcp 1540 ------- 0 0.0 1.0 4 7
- 1.040379 0 1 tcp 1540 ------- 0 0.0 1.0 5 8
- 1.040502 0 1 tcp 1540 ------- 0 0.0 1.0 6 9
r 1.050256 0 1 tcp 1540 ------- 0 0.0 1.0 3 6
+ 1.050256 1 0 ack 40 ------- 0 1.0 0.0 3 10
- 1.050256 1 0 ack 40 ------- 0 1.0 0.0 3 10
r 1.050379 0 1 tcp 1540 ------- 0 0.0 1.0 4 7
+ 1.050379 1 0 ack 40 ------- 0 1.0 0.0 4 11
- 1.050379 1 0 ack 40 ------- 0 1.0 0.0 4 11
r 1.050502 0 1 tcp 1540 ------- 0 0.0 1.0 5 8
+ 1.050502 1 0 ack 40 ------- 0 1.0 0.0 5 12
- 1.050502 1 0 ack 40 ------- 0 1.0 0.0 5 12
r 1.050626 0 1 tcp 1540 ------- 0 0.0 1.0 6 9
+ 1.050626 1 0 ack 40 ------- 0 1.0 0.0 6 13
- 1.050626 1 0 ack 40 ------- 0 1.0 0.0 6 13
r 1.060259 1 0 ack 40 ------- 0 1.0 0.0 3 10
+ 1.060259 0 1 tcp 1540 ------- 0 0.0 1.0 7 14
- 1.060259 0 1 tcp 1540 ------- 0 0.0 1.0 7 14
+ 1.060259 0 1 tcp 1540 ------- 0 0.0 1.0 8 15
r 1.060382 1 0 ack 40 ------- 0 1.0 0.0 4 11
+ 1.060382 0 1 tcp 1540 ------- 0 0.0 1.0 9 16
+ 1.060382 0 1 tcp 1540 ------- 0 0.0 1.0 10 17
- 1.060382 0 1 tcp 1540 ------- 0 0.0 1.0 8 15
r 1.060506 1 0 ack 40 ------- 0 1.0 0.0 5 12
+ 1.060506 0 1 tcp 1540 ------- 0 0.0 1.0 11 18
+ 1.060506 0 1 tcp 1540 ------- 0 0.0 1.0 12 19
- 1.060506 0 1 tcp 1540 ------- 0 0.0 1.0 9 16
r 1.060629 1 0 ack 40 ------- 0 1.0 0.0 6 13
+ 1.060629 0 1 tcp 1540 ------- 0 0.0 1.0 13 20
+ 1.060629 0 1 tcp 1540 ------- 0 0.0 1.0 14 21
- 1.060629 0 1 tcp 1540 ------- 0 0.0 1.0 10 17
- 1.060752 0 1 tcp 1540 ------- 0 0.0 1.0 11 18
- 1.060875 0 1 tcp 1540 ------- 0 0.0 1.0 12 19
- 1.060998 0 1 tcp 1540 ------- 0 0.0 1.0 13 20
- 1.061122 0 1 tcp 1540 ------- 0 0.0 1.0 14 21
r 1.070382 0 1 tcp 1540 ------- 0 0.0 1.0 7 14
+ 1.070382 1 0 ack 40 ------- 0 1.0 0.0 7 22
- 1.070382 1 0 ack 40 ------- 0 1.0 0.0 7 22
r 1.070506 0 1 tcp 1540 ------- 0 0.0 1.0 8 15
+ 1.070506 1 0 ack 40 ------- 0 1.0 0.0 8 23
- 1.070506 1 0 ack 40 ------- 0 1.0 0.0 8 23
r 1.070629 0 1 tcp 1540 ------- 0 0.0 1.0 9 16
+ 1.070629 1 0 ack 40 ------- 0 1.0 0.0 9 24
- 1.070629 1 0 ack 40 ------- 0 1.0 0.0 9 24
r 1.070752 0 1 tcp 1540 ------- 0 0.0 1.0 10 17
+ 1.070752 1 0 ack 40 ------- 0 1.0 0.0 10 25
- 1.070752 1 0 ack 40 ------- 0 1.0 0.0 10 25
r 1.070875 0 1 tcp 1540 ------- 0 0.0 1.0 11 18
+ 1.070875 1 0 ack 40 ------- 0 1.0 0.0 11 26
- 1.070875 1 0 ack 40 ------- 0 1.0 0.0 11 26
r 1.070998 0 1 tcp 1540 ------- 0 0.0 1.0 12 19
+ 1.070998 1 0 ack 40 ------- 0 1.0 0.0 12 27
- 1.070998 1 0 ack 40 ------- 0 1.0 0.0 12 27
r 1.071122 0 1 tcp 1540 ------- 0 0.0 1.0 13 20
+ 1.071122 1 0 ack 40 ------- 0 1.0 0.0 13 28
- 1.071122 1 0 ack 40 ------- 0 1.0 0.0 13 28
r 1.071245 0 1 tcp 1540 ------- 0 0.0 1.0 14 21
+ 1.071245 1 0 ack 40 ------- 0 1.0 0.0 14 29
- 1.071245 1 0 ack 40 ------- 0 1.0 0.0 14 29
r 1.080386 1 0 ack 40 ------- 0 1.0 0.0 7 22
+ 1.080386 0 1 tcp 1540 ------- 0 0.0 1.0 15 30
- 1.080386 0 1 tcp 1540 ------- 0 0.0 1.0 15 30
+ 1.080386 0 1 tcp 1540 ------- 0 0.0 1.0 16 31
r 1.080509 1 0 ack 40 ------- 0 1.0 0.0 8 23
+ 1.080509 0 1 tcp 1540 ------- 0 0.0 1.0 17 32
+ 1.080509 0 1 tcp 1540 ------- 0 0.0 1.0 18 33
- 1.080509 0 1 tcp 1540 ------- 0 0.0 1.0 16 31
r 1.080632 1 0 ack 40 ------- 0 1.0 0.0 9 24
+ 1.080632 0 1 tcp 1540 ------- 0 0.0 1.0 19 34
+ 1.080632 0 1 tcp 1540 ------- 0 0.0 1.0 20 35
- 1.080632 0 1 tcp 1540 ------- 0 0.0 1.0 17 32
r 1.080755 1 0 ack 40 ------- 0 1.0 0.0 10 25
+ 1.080755 0 1 tcp 1540 ------- 0 0.0 1.0 21 36
+ 1.080755 0 1 tcp 1540 ------- 0 0.0 1.0 22 37
- 1.080755 0 1 tcp 1540 ------- 0 0.0 1.0 18 33
r 1.080878 1 0 ack 40 ------- 0 1.0 0.0 11 26
+ 1.080878 0 1 tcp 1540 ------- 0 0.0 1.0 23 38
+ 1.080878 0 1 tcp 1540 ------- 0 0.0 1.0 24 39
- 1.080878 0 1 tcp 1540 ------- 0 0.0 1.0 19 34
r 1.081002 1 0 ack 40 ------- 0 1.0 0.0 12 27
+ 1.081002 0 1 tcp 1540 ------- 0 0.0 1.0 25 40
+ 1.081002 0 1 tcp 1540 ------- 0 0.0 1.0 26 41
- 1.081002 0 1 tcp 1540 ------- 0 0.0 1.0 20 35
r 1.081125 1 0 ack 40 ------- 0 1.0 0.0 13 28
+ 1.081125 0 1 tcp 1540 ------- 0 0.0 1.0 27 42
+ 1.081125 0 1 tcp 1540 ------- 0 0.0 1.0 28 43
- 1.081125 0 1 tcp 1540 ------- 0 0.0 1.0 21 36
r 1.081248 1 0 ack 40 ------- 0 1.0 0.0 14 29
+ 1.081248 0 1 tcp 1540 ------- 0 0.0 1.0 29 44
+ 1.081248 0 1 tcp 1540 ------- 0 0.0 1.0 30 45
- 1.081248 0 1 tcp 1540 ------- 0 0.0 1.0 22 37
- 1.081371 0 1 tcp 1540 ------- 0 0.0 1.0 23 38
- 1.081494 0 1 tcp 1540 ------- 0 0.0 1.0 24 39
- 1.081618 0 1 tcp 1540 ------- 0 0.0 1.0 25 40
- 1.081741 0 1 tcp 1540 ------- 0 0.0 1.0 26 41
- 1.081864 0 1 tcp 1540 ------- 0 0.0 1.0 27 42
- 1.081987 0 1 tcp 1540 ------- 0 0.0 1.0 28 43
- 1.08211 0 1 tcp 1540 ------- 0 0.0 1.0 29 44
- 1.082234 0 1 tcp 1540 ------- 0 0.0 1.0 30 45
r 1.090509 0 1 tcp 1540 ------- 0 0.0 1.0 15 30
+ 1.090509 1 0 ack 40 ------- 0 1.0 0.0 15 46
- 1.090509 1 0 ack 40 ------- 0 1.0 0.0 15 46
r 1.090632 0 1 tcp 1540 ------- 0 0.0 1.0 16 31
+ 1.090632 1 0 ack 40 ------- 0 1.0 0.0 16 47
- 1.090632 1 0 ack 40 ------- 0 1.0 0.0 16 47
r 1.090755 0 1 tcp 1540 ------- 0 0.0 1.0 17 32
+ 1.090755 1 0 ack 40 ------- 0 1.0 0.0 17 48
- 1.090755 1 0 ack 40 ------- 0 1.0 0.0 17 48
r 1.090878 0 1 tcp 1540 ------- 0 0.0 1.0 18 33
+ 1.090878 1 0 ack 40 ------- 0 1.0 0.0 18 49
- 1.090878 1 0 ack 40 ------- 0 1.0 0.0 18 49
r 1.091002 0 1 tcp 1540 ------- 0 0.0 1.0 19 34
+ 1.091002 1 0 ack 40 ------- 0 1.0 0.0 19 50
- 1.091002 1 0 ack 40 ------- 0 1.0 0.0 19 50
r 1.091125 0 1 tcp 1540 ------- 0 0.0 1.0 20 35
+ 1.091125 1 0 ack 40 ------- 0 1.0 0.0 20 51
- 1.091125 1 0 ack 40 ------- 0 1.0 0.0 20 51
r 1.091248 0 1 tcp 1540 ------- 0 0.0 1.0 21 36
+ 1.091248 1 0 ack 40 ------- 0 1.0 0.0 21 52
- 1.091248 1 0 ack 40 ------- 0 1.0 0.0 21 52
r 1.091371 0 1 tcp 1540 ------- 0 0.0 1.0 22 37
+ 1.091371 1 0 ack 40 ------- 0 1.0 0.0 22 53
- 1.091371 1 0 ack 40 ------- 0 1.0 0.0 22 53
r 1.091494 0 1 tcp 1540 ------- 0 0.0 1.0 23 38
+ 1.091494 1 0 ack 40 ------- 0 1.0 0.0 23 54
- 1.091494 1 0 ack 40 ------- 0 1.0 0.0 23 54
r 1.091618 0 1 tcp 1540 ------- 0 0.0 1.0 24 39
+ 1.091618 1 0 ack 40 ------- 0 1.0 0.0 24 55
- 1.091618 1 0 ack 40 ------- 0 1.0 0.0 24 55
r 1.091741 0 1 tcp 1540 ------- 0 0.0 1.0 25 40
+ 1.091741 1 0 ack 40 ------- 0 1.0 0.0 25 56
- 1.091741 1 0 ack 40 ------- 0 1.0 0.0 25 56
r 1.091864 0 1 tcp 1540 ------- 0 0.0 1.0 26 41
+ 1.091864 1 0 ack 40 ------- 0 1.0 0.0 26 57
- 1.091864 1 0 ack 40 ------- 0 1.0 0.0 26 57
r 1.091987 0 1 tcp 1540 ------- 0 0.0 1.0 27 42
+ 1.091987 1 0 ack 40 ------- 0 1.0 0.0 27 58
- 1.091987 1 0 ack 40 ------- 0 1.0 0.0 27 58
r 1.09211 0 1 tcp 1540 ------- 0 0.0 1.0 28 43
+ 1.09211 1 0 ack 40 ------- 0 1.0 0.0 28 59
- 1.09211 1 0 ack 40 ------- 0 1.0 0.0 28 59
r 1.092234 0 1 tcp 1540 ------- 0 0.0 1.0 29 44
+ 1.092234 1 0 ack 40 ------- 0 1.0 0.0 29 60
- 1.092234 1 0 ack 40 ------- 0 1.0 0.0 29 60
r 1.092357 0 1 tcp 1540 ------- 0 0.0 1.0 30 45
+ 1.092357 1 0 ack 40 ------- 0 1.0 0.0 30 61
- 1.092357 1 0 ack 40 ------- 0 1.0 0.0 30 61
r 1.100512 1 0 ack 40 ------- 0 1.0 0.0 15 46
+ 1.100512 0 1 tcp 1540 ------- 0 0.0 1.0 31 62
- 1.100512 0 1 tcp 1540 ------- 0 0.0 1.0 31 62
+ 1.100512 0 1 tcp 1540 ------- 0 0.0 1.0 32 63
r 1.100635 1 0 ack 40 ------- 0 1.0 0.0 16 47
+ 1.100635 0 1 tcp 1540 ------- 0 0.0 1.0 33 64
+ 1.100635 0 1 tcp 1540 ------- 0 0.0 1.0 34 65
- 1.100635 0 1 tcp 1540 ------- 0 0.0 1.0 32 63
r 1.100758 1 0 ack 40 ------- 0 1.0 0.0 17 48
+ 1.100758 0 1 tcp 1540 ------- 0 0.0 1.0 35 66
+ 1.100758 0 1 tcp 1540 ------- 0 0.0 1.0 36 67
- 1.100758 0 1 tcp 1540 ------- 0 0.0 1.0 33 64
r 1.100882 1 0 ack 40 ------- 0 1.0 0.0 18 49
+ 1.100882 0 1 tcp 1540 ------- 0 0.0 1.0 37 68
+ 1.100882 0 1 tcp 1540 ------- 0 0.0 1.0 38 69
- 1.100882 0 1 tcp 1540 ------- 0 0.0 1.0 34 65
r 1.101005 1 0 ack 40 ------- 0 1.0 0.0 19 50
+ 1.101005 0 1 tcp 1540 ------- 0 0.0 1.0 39 70
- 1.101005 0 1 tcp 1540 ------- 0 0.0 1.0 35 66
r 1.101128 1 0 ack 40 ------- 0 1.0 0.0 20 51
+ 1.101128 0 1 tcp 1540 ------- 0 0.0 1.0 40 71
- 1.101128 0 1 tcp 1540 ------- 0 0.0 1.0 36 67
r 1.101251 1 0 ack 40 ------- 0 1.0 0.0 21 52
+ 1.101251 0 1 tcp 1540 ------- 0 0.0 1.0 41 72
- 1.101251 0 1 tcp 1540 ------- 0 0.0 1.0 37 68
r 1.101374 1 0 ack 40 ------- 0 1.0 0.0 22 53
+ 1.101374 0 1 tcp 1540 ------- 0 0.0 1.0 42 73
- 1.101374 0 1 tcp 1540 ------- 0 0.0 1.0 38 69
r 1.101498 1 0 ack 40 ------- 0 1.0 0.0 23 54
+ 1.101498 0 1 tcp 1540 ------- 0 0.0 1.0 43 74
- 1.101498 0 1 tcp 1540 ------- 0 0.0 1.0 39 70
r 1.101621 1 0 ack 40 ------- 0 1.0 0.0 24 55
+ 1.101621 0 1 tcp 1540 ------- 0 0.0 1.0 44 75
- 1.101621 0 1 tcp 1540 ------- 0 0.0 1.0 40 71
r 1.101744 1 0 ack 40 ------- 0 1.0 0.0 25 56
+ 1.101744 0 1 tcp 1540 ------- 0 0.0 1.0 45 76
- 1.101744 0 1 tcp 1540 ------- 0 0.0 1.0 41 72
r 1.101867 1 0 ack 40 ------- 0 1.0 0.0 26 57
+ 1.101867 0 1 tcp 1540 ------- 0 0.0 1.0 46 77
- 1.101867 0 1 tcp 1540 ------- 0 0.0 1.0 42 73
r 1.10199 1 0 ack 40 ------- 0 1.0 0.0 27 58
+ 1.10199 0 1 tcp 1540 ------- 0 0.0 1.0 47 78
- 1.10199 0 1 tcp 1540 ------- 0 0.0 1.0 43 74
r 1.102114 1 0 ack 40 ------- 0 1.0 0.0 28 59
+ 1.102114 0 1 tcp 1540 ------- 0 0.0 1.0 48 79
- 1.102114 0 1 tcp 1540 ------- 0 0.0 1.0 44 75
r 1.102237 1 0 ack 40 ------- 0 1.0 0.0 29 60
+ 1.102237 0 1 tcp 1540 ------- 0 0.0 1.0 49 80
- 1.102237 0 1 tcp 1540 ------- 0 0.0 1.0 45 76
r 1.10236 1 0 ack 40 ------- 0 1.0 0.0 30 61
+ 1.10236 0 1 tcp 1540 ------- 0 0.0 1.0 50 81
- 1.10236 0 1 tcp 1540 ------- 0 0.0 1.0 46 77
- 1.102483 0 1 tcp 1540 ------- 0 0.0 1.0 47 78
- 1.102606 0 1 tcp 1540 ------- 0 0.0 1.0 48 79
- 1.10273 0 1 tcp 1540 ------- 0 0.0 1.0 49 80
- 1.102853 0 1 tcp 1540 ------- 0 0.0 1.0 50 81
r 1.110635 0 1 tcp 1540 ------- 0 0.0 1.0 31 62
+ 1.110635 1 0 ack 40 ------- 0 1.0 0.0 31 82
- 1.110635 1 0 ack 40 ------- 0 1.0 0.0 31 82
r 1.110758 0 1 tcp 1540 ------- 0 0.0 1.0 32 63
+ 1.110758 1 0 ack 40 ------- 0 1.0 0.0 32 83
- 1.110758 1 0 ack 40 ------- 0 1.0 0.0 32 83
r 1.110882 0 1 tcp 1540 ------- 0 0.0 1.0 33 64
+ 1.110882 1 0 ack 40 ------- 0 1.0 0.0 33 84
- 1.110882 1 0 ack 40 ------- 0 1.0 0.0 33 84
r 1.111005 0 1 tcp 1540 ------- 0 0.0 1.0 34 65
+ 1.111005 1 0 ack 40 ------- 0 1.0 0.0 34 85
- 1.111005 1 0 ack 40 ------- 0 1.0 0.0 34 85
r 1.111128 0 1 tcp 1540 ------- 0 0.0 1.0 35 66
+ 1.111128 1 0 ack 40 ------- 0 1.0 0.0 35 86
- 1.111128 1 0 ack 40 ------- 0 1.0 0.0 35 86
r 1.111251 0 1 tcp 1540 ------- 0 0.0 1.0 36 67
+ 1.111251 1 0 ack 40 ------- 0 1.0 0.0 36 87
- 1.111251 1 0 ack 40 ------- 0 1.0 0.0 36 87
r 1.111374 0 1 tcp 1540 ------- 0 0.0 1.0 37 68
+ 1.111374 1 0 ack 40 ------- 0 1.0 0.0 37 88
- 1.111374 1 0 ack 40 ------- 0 1.0 0.0 37 88
r 1.111498 0 1 tcp 1540 ------- 0 0.0 1.0 38 69
+ 1.111498 1 0 ack 40 ------- 0 1.0 0.0 38 89
- 1.111498 1 0 ack 40 ------- 0 1.0 0.0 38 89
r 1.111621 0 1 tcp 1540 ------- 0 0.0 1.0 39 70
+ 1.111621 1 0 ack 40 ------- 0 1.0 0.0 39 90
- 1.111621 1 0 ack 40 ------- 0 1.0 0.0 39 90
r 1.111744 0 1 tcp 1540 ------- 0 0.0 1.0 40 71
+ 1.111744 1 0 ack 40 ------- 0 1.0 0.0 40 91
- 1.111744 1 0 ack 40 ------- 0 1.0 0.0 40 91
r 1.111867 0 1 tcp 1540 ------- 0 0.0 1.0 41 72
+ 1.111867 1 0 ack 40 ------- 0 1.0 0.0 41 92
- 1.111867 1 0 ack 40 ------- 0 1.0 0.0 41 92
r 1.11199 0 1 tcp 1540 ------- 0 0.0 1.0 42 73
+ 1.11199 1 0 ack 40 ------- 0 1.0 0.0 42 93
- 1.11199 1 0 ack 40 ------- 0 1.0 0.0 42 93
r 1.112114 0 1 tcp 1540 ------- 0 0.0 1.0 43 74
+ 1.112114 1 0 ack 40 ------- 0 1.0 0.0 43 94
- 1.112114 1 0 ack 40 ------- 0 1.0 0.0 43 94
r 1.112237 0 1 tcp 1540 ------- 0 0.0 1.0 44 75
+ 1.112237 1 0 ack 40 ------- 0 1.0 0.0 44 95
- 1.112237 1 0 ack 40 ------- 0 1.0 0.0 44 95
r 1.11236 0 1 tcp 1540 ------- 0 0.0 1.0 45 76
+ 1.11236 1 0 ack 40 ------- 0 1.0 0.0 45 96
- 1.11236 1 0 ack 40 ------- 0 1.0 0.0 45 96
r 1.112483 0 1 tcp 1540 ------- 0 0.0 1.0 46 77
+ 1.112483 1 0 ack 40 ------- 0 1.0 0.0 46 97
- 1.112483 1 0 ack 40 ------- 0 1.0 0.0 46 97
r 1.112606 0 1 tcp 1540 ------- 0 0.0 1.0 47 78
+ 1.112606 1 0 ack 40 ------- 0 1.0 0.0 47 98
- 1.112606 1 0 ack 40 ------- 0 1.0 0.0 47 98
r 1.11273 0 1 tcp 1540 ------- 0 0.0 1.0 48 79
+ 1.11273 1 0 ack 40 ------- 0 1.0 0.0 48 99
- 1.11273 1 0 ack 40 ------- 0 1.0 0.0 48 99
r 1.112853 0 1 tcp 1540 ------- 0 0.0 1.0 49 80
+ 1.112853 1 0 ack 40 ------- 0 1.0 0.0 49 100
- 1.112853 1 0 ack 40 ------- 0 1.0 0.0 49 100
r 1.112976 0 1 tcp 1540 ------- 0 0.0 1.0 50 81
+ 1.112976 1 0 ack 40 ------- 0 1.0 0.0 50 101
- 1.112976 1 0 ack 40 ------- 0 1.0 0.0 50 101
r 1.120638 1 0 ack 40 ------- 0 1.0 0.0 31 82
+ 1.120638 0 1 tcp 1540 ------- 0 0.0 1.0 51 102
- 1.120638 0 1 tcp 1540 ------- 0 0.0 1.0 51 102
r 1.120762 1 0 ack 40 ------- 0 1.0 0.0 32 83
+ 1.120762 0 1 tcp 1540 ------- 0 0.0 1.0 52 103
- 1.120762 0 1 tcp 1540 ------- 0 0.0 1.0 52 103
r 1.120885 1 0 ack 40 ------- 0 1.0 0.0 33 84
+ 1.120885 0 1 tcp 1540 ------- 0 0.0 1.0 53 104
- 1.120885 0 1 tcp 1540 ------- 0 0.0 1.0 53 104
r 1.121008 1 0 ack 40 ------- 0 1.0 0.0 34 85
+ 1.121008 0 1 tcp 1540 ------- 0 0.0 1.0 54 105
- 1.121008 0 1 tcp 1540 ------- 0 0.0 1.0 54 105
r 1.121131 1 0 ack 40 ------- 0 1.0 0.0 35 86
+ 1.121131 0 1 tcp 1540 ------- 0 0.0 1.0 55 106
- 1.121131 0 1 tcp 1540 ------- 0 0.0 1.0 55 106
r 1.121254 1 0 ack 40 ------- 0 1.0 0.0 36 87
+ 1.121254 0 1 tcp 1540 ------- 0 0.0 1.0 56 107
- 1.121254 0 1 tcp 1540 ------- 0 0.0 1.0 56 107
r 1.121378 1 0 ack 40 ------- 0 1.0 0.0 37 88
+ 1.121378 0 1 tcp 1540 ------- 0 0.0 1.0 57 108
- 1.121378 0 1 tcp 1540 ------- 0 0.0 1.0 57 108
r 1.121501 1 0 ack 40 ------- 0 1.0 0.0 38 89
+ 1.121501 0 1 tcp 1540 ------- 0 0.0 1.0 58 109
- 1.121501 0 1 tcp 1540 ------- 0 0.0 1.0 58 109
r 1.121624 1 0 ack 40 ------- 0 1.0 0.0 39 90
+ 1.121624 0 1 tcp 1540 ------- 0 0.0 1.0 59 110
- 1.121624 0 1 tcp 1540 ------- 0 0.0 1.0 59 110
r 1.121747 1 0 ack 40 ------- 0 1.0 0.0 40 91
+ 1.121747 0 1 tcp 1540 ------- 0 0.0 1.0 60 111
- 1.121747 0 1 tcp 1540 ------- 0 0.0 1.0 60 111
r 1.12187 1 0 ack 40 ------- 0 1.0 0.0 41 92
+ 1.12187 0 1 tcp 1540 ------- 0 0.0 1.0 61 112
- 1.12187 0 1 tcp 1540 ------- 0 0.0 1.0 61 112
r 1.121994 1 0 ack 40 ------- 0 1.0 0.0 42 93
+ 1.121994 0 1 tcp 1540 ------- 0 0.0 1.0 62 113
- 1.121994 0 1 tcp 1540 ------- 0 0.0 1.0 62 113
r 1.122117 1 0 ack 40 ------- 0 1.0 0.0 43 94
+ 1.122117 0 1 tcp 1540 ------- 0 0.0 1.0 63 114
- 1.122117 0 1 tcp 1540 ------- 0 0.0 1.0 63 114
r 1.12224 1 0 ack 40 ------- 0 1.0 0.0 44 95
+ 1.12224 0 1 tcp 1540 ------- 0 0.0 1.0 64 115
- 1.12224 0 1 tcp 1540 ------- 0 0.0 1.0 64 115
r 1.122363 1 0 ack 40 ------- 0 1.0 0.0 45 96
+ 1.122363 0 1 tcp 1540 ------- 0 0.0 1.0 65 116
- 1.122363 0 1 tcp 1540 ------- 0 0.0 1.0 65 116
r 1.122486 1 0 ack 40 ------- 0 1.0 0.0 46 97
+ 1.122486 0 1 tcp 1540 ------- 0 0.0 1.0 66 117
- 1.122486 0 1 tcp 1540 ------- 0 0.0 1.0 66 117
r 1.12261 1 0 ack 40 ------- 0 1.0 0.0 47 98
+ 1.12261 0 1 tcp 1540 ------- 0 0.0 1.0 67 118
- 1.12261 0 1 tcp 1540 ------- 0 0.0 1.0 67 118
r 1.122733 1 0 ack 40 ------- 0 1.0 0.0 48 99
+ 1.122733 0 1 tcp 1540 ------- 0 0.0 1.0 68 119
- 1.122733 0 1 tcp 1540 ------- 0 0.0 1.0 68 119
r 1.122856 1 0 ack 40 ------- 0 1.0 0.0 49 100
+ 1.122856 0 1 tcp 1540 ------- 0 0.0 1.0 69 120
- 1.122856 0 1 tcp 1540 ------- 0 0.0 1.0 69 120
r 1.122979 1 0 ack 40 ------- 0 1.0 0.0 50 101
+ 1.122979 0 1 tcp 1540 ------- 0 0.0 1.0 70 121
- 1.122979 0 1 tcp 1540 ------- 0 0.0 1.0 70 121
r 1.130762 0 1 tcp 1540 ------- 0 0.0 1.0 51 102
+ 1.130762 1 0 ack 40 ------- 0 1.0 0.0 51 122
- 1.130762 1 0 ack 40 ------- 0 1.0 0.0 51 122
r 1.130885 0 1 tcp 1540 ------- 0 0.0 1.0 52 103
+ 1.130885 1 0 ack 40 ------- 0 1.0 0.0 52 123
- 1.130885 1 0 ack 40 ------- 0 1.0 0.0 52 123
r 1.131008 0 1 tcp 1540 ------- 0 0.0 1.0 53 104
+ 1.131008 1 0 ack 40 ------- 0 1.0 0.0 53 124
- 1.131008 1 0 ack 40 ------- 0 1.0 0.0 53 124
r 1.131131 0 1 tcp 1540 ------- 0 0.0 1.0 54 105
+ 1.131131 1 0 ack 40 ------- 0 1.0 0.0 54 125
- 1.131131 1 0 ack 40 ------- 0 1.0 0.0 54 125
r 1.131254 0 1 tcp 1540 ------- 0 0.0 1.0 55 106
+ 1.131254 1 0 ack 40 ------- 0 1.0 0.0 55 126
- 1.131254 1 0 ack 40 ------- 0 1.0 0.0 55 126
r 1.131378 0 1 tcp 1540 ------- 0 0.0 1.0 56 107
+ 1.131378 1 0 ack 40 ------- 0 1.0 0.0 56 127
- 1.131378 1 0 ack 40 ------- 0 1.0 0.0 56 127
r 1.131501 0 1 tcp 1540 ------- 0 0.0 1.0 57 108
+ 1.131501 1 0 ack 40 ------- 0 1.0 0.0 57 128
- 1.131501 1 0 ack 40 ------- 0 1.0 0.0 57 128
r 1.131624 0 1 tcp 1540 ------- 0 0.0 1.0 58 109
+ 1.131624 1 0 ack 40 ------- 0 1.0 0.0 58 129
- 1.131624 1 0 ack 40 ------- 0 1.0 0.0 58 129
r 1.131747 0 1 tcp 1540 ------- 0 0.0 1.0 59 110
+ 1.131747 1 0 ack 40 ------- 0 1.0 0.0 59 130
- 1.131747 1 0 ack 40 ------- 0 1.0 0.0 59 130
r 1.13187 0 1 tcp 1540 ------- 0 0.0 1.0 60 111
+ 1.13187 1 0 ack 40 ------- 0 1.0 0.0 60 131
- 1.13187 1 0 ack 40 ------- 0 1.0 0.0 60 131
r 1.131994 0 1 tcp 1540 ------- 0 0.0 1.0 61 112
+ 1.131994 1 0 ack 40 ------- 0 1.0 0.0 61 132
- 1.131994 1 0 ack 40 ------- 0 1.0 0.0 61 132
r 1.132117 0 1 tcp 1540 ------- 0 0.0 1.0 62 113
+ 1.132117 1 0 ack 40 ------- 0 1.0 0.0 62 133
- 1.132117 1 0 ack 40 ------- 0 1.0 0.0 62 133
r 1.13224 0 1 tcp 1540 ------- 0 0.0 1.0 63 114
+ 1.13224 1 0 ack 40 ------- 0 1.0 0.0 63 134
- 1.13224 1 0 ack 40 ------- 0 1.0 0.0 63 134
r 1.132363 0 1 tcp 1540 ------- 0 0.0 1.0 64 115
+ 1.132363 1 0 ack 40 ------- 0 1.0 0.0 64 135
- 1.132363 1 0 ack 40 ------- 0 1.0 0.0 64 135
r 1.132486 0 1 tcp 1540 ------- 0 0.0 1.0 65 116
+ 1.132486 1 0 ack 40 ------- 0 1.0 0.0 65 136
- 1.132486 1 0 ack 40 ------- 0 1.0 0.0 65 136
r 1.13261 0 1 tcp 1540 ------- 0 0.0 1.0 66 117
+ 1.13261 1 0 ack 40 ------- 0 1.0 0.0 66 137
- 1.13261 1 0 ack 40 ------- 0 1.0 0.0 66 137
r 1.132733 0 1 tcp 1540 ------- 0 0.0 1.0 67 118
+ 1.132733 1 0 ack 40 ------- 0 1.0 0.0 67 138
- 1.132733 1 0 ack 40 ------- 0 1.0 0.0 67 138
r 1.132856 0 1 tcp 1540 ------- 0 0.0 1.0 68 119
+ 1.132856 1 0 ack 40 ------- 0 1.0 0.0 68 139
- 1.132856 1 0 ack 40 ------- 0 1.0 0.0 68 139
r 1.132979 0 1 tcp 1540 ------- 0 0.0 1.0 69 120
+ 1.132979 1 0 ack 40 ------- 0 1.0 0.0 69 140
- 1.132979 1 0 ack 40 ------- 0 1.0 0.0 69 140
r 1.133102 0 1 tcp 1540 ------- 0 0.0 1.0 70 121
+ 1.133102 1 0 ack 40 ------- 0 1.0 0.0 70 141
- 1.133102 1 0 ack 40 ------- 0 1.0 0.0 70 141
r 1.140765 1 0 ack 40 ------- 0 1.0 0.0 51 122
+ 1.140765 0 1 tcp 1540 ------- 0 0.0 1.0 71 142
- 1.140765 0 1 tcp 1540 ------- 0 0.0 1.0 71 142
r 1.140888 1 0 ack 40 ------- 0 1.0 0.0 52 123
+ 1.140888 0 1 tcp 1540 ------- 0 0.0 1.0 72 143
- 1.140888 0 1 tcp 1540 ------- 0 0.0 1.0 72 143
r 1.141011 1 0 ack 40 ------- 0 1.0 0.0 53 124
+ 1.141011 0 1 tcp 1540 ------- 0 0.0 1.0 73 144
- 1.141011 0 1 tcp 1540 ------- 0 0.0 1.0 73 144
r 1.141134 1 0 ack 40 ------- 0 1.0 0.0 54 125
+ 1.141134 0 1 tcp 1540 ------- 0 0.0 1.0 74 145
- 1.141134 0 1 tcp 1540 ------- 0 0.0 1.0 74 145
r 1.141258 1 0 ack 40 ------- 0 1.0 0.0 55 126
+ 1.141258 0 1 tcp 1540 ------- 0 0.0 1.0 75 146
- 1.141258 0 1 tcp 1540 ------- 0 0.0 1.0 75 146
r 1.141381 1 0 ack 40 ------- 0 1.0 0.0 56 127
+ 1.141381 0 1 tcp 1540 ------- 0 0.0 1.0 76 147
- 1.141381 0 1 tcp 1540 ------- 0 0.0 1.0 76 147
r 1.141504 1 0 ack 40 ------- 0 1.0 0.0 57 128
+ 1.141504 0 1 tcp 1540 ------- 0 0.0 1.0 77 148
- 1.141504 0 1 tcp 1540 ------- 0 0.0 1.0 77 148
r 1.141627 1 0 ack 40 ------- 0 1.0 0.0 58 129
+ 1.141627 0 1 tcp 1540 ------- 0 0.0 1.0 78 149
- 1.141627 0 1 tcp 1540 ------- 0 0.0 1.0 78 149
r 1.14175 1 0 ack 40 ------- 0 1.0 0.0 59 130
+ 1.14175 0 1 tcp 1540 ------- 0 0.0 1.0 79 150
- 1.14175 0 1 tcp 1540 ------- 0 0.0 1.0 79 150
r 1.141874 1 0 ack 40 ------- 0 1.0 0.0 60 131
+ 1.141874 0 1 tcp 1540 ------- 0 0.0 1.0 80 151
- 1.141874 0 1 tcp 1540 ------- 0 0.0 1.0 80 151
r 1.141997 1 0 ack 40 ------- 0 1.0 0.0 61 132
+ 1.141997 0 1 tcp 1540 ------- 0 0.0 1.0 81 152
- 1.141997 0 1 tcp 1540 ------- 0 0.0 1.0 81 152
r 1.14212 1 0 ack 40 ------- 0 1.0 0.0 62 133
+ 1.14212 0 1 tcp 1540 ------- 0 0.0 1.0 82 153
- 1.14212 0 1 tcp 1540 ------- 0 0.0 1.0 82 153
r 1.142243 1 0 ack 40 ------- 0 1.0 0.0 63 134
+ 1.142243 0 1 tcp 1540 ------- 0 0.0 1.0 83 154
- 1.142243 0 1 tcp 1540 ------- 0 0.0 1.0 83 154
r 1.142366 1 0 ack 40 ------- 0 1.0 0.0 64 135
+ 1.142366 0 1 tcp 1540 ------- 0 0.0 1.0 84 155
- 1.142366 0 1 tcp 1540 ------- 0 0.0 1.0 84 155
r 1.14249 1 0 ack 40 ------- 0 1.0 0.0 65 136
+ 1.14249 0 1 tcp 1540 ------- 0 0.0 1.0 85 156
- 1.14249 0 1 tcp 1540 ------- 0 0.0 1.0 85 156
r 1.142613 1 0 ack 40 ------- 0 1.0 0.0 66 137
+ 1.142613 0 1 tcp 1540 ------- 0 0.0 1.0 86 157
- 1.142613 0 1 tcp 1540 ------- 0 0.0 1.0 86 157
r 1.142736 1 0 ack 40 ------- 0 1.0 0.0 67 138
+ 1.142736 0 1 tcp 1540 ------- 0 0.0 1.0 87 158
- 1.142736 0 1 tcp 1540 ------- 0 0.0 1.0 87 158
r 1.142859 1 0 ack 40 ------- 0 1.0 0.0 68 139
+ 1.142859 0 1 tcp 1540 ------- 0 0.0 1.0 88 159
- 1.142859 0 1 tcp 1540 ------- 0 0.0 1.0 88 159
r 1.142982 1 0 ack 40 ------- 0 1.0 0.0 69 140
+ 1.142982 0 1 tcp 1540 ------- 0 0.0 1.0 89 160
- 1.142982 0 1 tcp 1540 ------- 0 0.0 1.0 89 160
r 1.143106 1 0 ack 40 ------- 0 1.0 0.0 70 141
+ 1.143106 0 1 tcp 1540 ------- 0 0.0 1.0 90 161
- 1.143106 0 1 tcp 1540 ------- 0 0.0 1.0 90 161
r 1.150888 0 1 tcp 1540 ------- 0 0.0 1.0 71 142
+ 1.150888 1 0 ack 40 ------- 0 1.0 0.0 71 162
- 1.150888 1 0 ack 40 ------- 0 1.0 0.0 71 162
r 1.151011 0 1 tcp 1540 ------- 0 0.0 1.0 72 143
+ 1.151011 1 0 ack 40 ------- 0 1.0 0.0 72 163
- 1.151011 1 0 ack 40 ------- 0 1.0 0.0 72 163
r 1.151134 0 1 tcp 1540 ------- 0 0.0 1.0 73 144
+ 1.151134 1 0 ack 40 ------- 0 1.0 0.0 73 164
- 1.151134 1 0 ack 40 ------- 0 1.0 0.0 73 164
r 1.151258 0 1 tcp 1540 ------- 0 0.0 1.0 74 145
+ 1.151258 1 0 ack 40 ------- 0 1.0 0.0 74 165
- 1.151258 1 0 ack 40 ------- 0 1.0 0.0 74 165
r 1.151381 0 1 tcp 1540 ------- 0 0.0 1.0 75 146
+ 1.151381 1 0 ack 40 ------- 0 1.0 0.0 75 166
- 1.151381 1 0 ack 40 ------- 0 1.0 0.0 75 166
r 1.151504 0 1 tcp 1540 ------- 0 0.0 1.0 76 147
+ 1.151504 1 0 ack 40 ------- 0 1.0 0.0 76 167
- 1.151504 1 0 ack 40 ------- 0 1.0 0.0 76 167
r 1.151627 0 1 tcp 1540 ------- 0 0.0 1.0 77 148
+ 1.151627 1 0 ack 40 ------- 0 1.0 0.0 77 168
- 1.151627 1 0 ack 40 ------- 0 1.0 0.0 77 168
r 1.15175 0 1 tcp 1540 ------- 0 0.0 1.0 78 149
+ 1.15175 1 0 ack 40 ------- 0 1.0 0.0 78 169
- 1.15175 1 0 ack 40 ------- 0 1.0 0.0 78 169
r 1.151874 0 1 tcp 1540 ------- 0 0.0 1.0 79 150
+ 1.151874 1 0 ack 40 ------- 0 1.0 0.0 79 170
- 1.151874 1 0 ack 40 ------- 0 1.0 0.0 79 170
r 1.151997 0 1 tcp 1540 ------- 0 0.0 1.0 80 151
+ 1.151997 1 0 ack 40 ------- 0 1.0 0.0 80 171
- 1.151997 1 0 ack 40 ------- 0 1.0 0.0 80 171
r 1.15212 0 1 tcp 1540 ------- 0 0.0 1.0 81 152
+ 1.15212 1 0 ack 40 ------- 0 1.0 0.0 81 172
- 1.15212 1 0 ack 40 ------- 0 1.0 0.0 81 172
r 1.152243 0 1 tcp 1540 ------- 0 0.0 1.0 82 153
+ 1.152243 1 0 ack 40 ------- 0 1.0 0.0 82 173
- 1.152243 1 0 ack 40 ------- 0 1.0 0.0 82 173
r 1.152366 0 1 tcp 1540 ------- 0 0.0 1.0 83 154
+ 1.152366 1 0 ack 40 ------- 0 1.0 0.0 83 174
- 1.152366 1 0 ack 40 ------- 0 1.0 0.0 83 174
r 1.15249 0 1 tcp 1540 ------- 0 0.0 1.0 84 155
+ 1.15249 1 0 ack 40 ------- 0 1.0 0.0 84 175
- 1.15249 1 0 ack 40 ------- 0 1.0 0.0 84 175
r 1.152613 0 1 tcp 1540 ------- 0 0.0 1.0 85 156
+ 1.152613 1 0 ack 40 ------- 0 1.0 0.0 85 176
- 1.152613 1 0 ack 40 ------- 0 1.0 0.0 85 176
r 1.152736 0 1 tcp 1540 ------- 0 0.0 1.0 86 157
+ 1.152736 1 0 ack 40 ------- 0 1.0 0.0 86 177
- 1.152736 1 0 ack 40 ------- 0 1.0 0.0 86 177
r 1.152859 0 1 tcp 1540 ------- 0 0.0 1.0 87 158
+ 1.152859 1 0 ack 40 ------- 0 1.0 0.0 87 178
- 1.152859 1 0 ack 40 ------- 0 1.0 0.0 87 178
r 1.152982 0 1 tcp 1540 ------- 0 0.0 1.0 88 159
+ 1.152982 1 0 ack 40 ------- 0 1.0 0.0 88 179
- 1.152982 1 0 ack 40 ------- 0 1.0 0.0 88 179
r 1.153106 0 1 tcp 1540 ------- 0 0.0 1.0 89 160
+ 1.153106 1 0 ack 40 ------- 0 1.0 0.0 89 180
- 1.153106 1 0 ack 40 ------- 0 1.0 0.0 89 180
r 1.153229 0 1 tcp 1540 ------- 0 0.0 1.0 90 161
+ 1.153229 1 0 ack 40 ------- 0 1.0 0.0 90 181
- 1.153229 1 0 ack 40 ------- 0 1.0 0.0 90 181
r 1.160891 1 0 ack 40 ------- 0 1.0 0.0 71 162
+ 1.160891 0 1 tcp 1540 ------- 0 0.0 1.0 91 182
- 1.160891 0 1 tcp 1540 ------- 0 0.0 1.0 91 182
r 1.161014 1 0 ack 40 ------- 0 1.0 0.0 72 163
+ 1.161014 0 1 tcp 1540 ------- 0 0.0 1.0 92 183
- 1.161014 0 1 tcp 1540 ------- 0 0.0 1.0 92 183
r 1.161138 1 0 ack 40 ------- 0 1.0 0.0 73 164
+ 1.161138 0 1 tcp 1540 ------- 0 0.0 1.0 93 184
- 1.161138 0 1 tcp 1540 ------- 0 0.0 1.0 93 184
r 1.161261 1 0 ack 40 ------- 0 1.0 0.0 74 165
+ 1.161261 0 1 tcp 1540 ------- 0 0.0 1.0 94 185
- 1.161261 0 1 tcp 1540 ------- 0 0.0 1.0 94 185
r 1.161384 1 0 ack 40 ------- 0 1.0 0.0 75 166
+ 1.161384 0 1 tcp 1540 ------- 0 0.0 1.0 95 186
- 1.161384 0 1 tcp 1540 ------- 0 0.0 1.0 95 186
r 1.161507 1 0 ack 40 ------- 0 1.0 0.0 76 167
+ 1.161507 0 1 tcp 1540 ------- 0 0.0 1.0 96 187
- 1.161507 0 1 tcp 1540 ------- 0 0.0 1.0 96 187
r 1.16163 1 0 ack 40 ------- 0 1.0 0.0 77 168
+ 1.16163 0 1 tcp 1540 ------- 0 0.0 1.0 97 188
- 1.16163 0 1 tcp 1540 ------- 0 0.0 1.0 97 188
r 1.161754 1 0 ack 40 ------- 0 1.0 0.0 78 169
+ 1.161754 0 1 tcp 1540 ------- 0 0.0 1.0 98 189
- 1.161754 0 1 tcp 1540 ------- 0 0.0 1.0 98 189
r 1.161877 1 0 ack 40 ------- 0 1.0 0.0 79 170
+ 1.161877 0 1 tcp 1540 ------- 0 0.0 1.0 99 190
- 1.161877 0 1 tcp 1540 ------- 0 0.0 1.0 99 190
r 1.162 1 0 ack 40 ------- 0 1.0 0.0 80 171
+ 1.162 0 1 tcp 1540 ------- 0 0.0 1.0 100 191
- 1.162 0 1 tcp 1540 ------- 0 0.0 1.0 100 191
r 1.162123 1 0 ack 40 ------- 0 1.0 0.0 81 172
+ 1.162123 0 1 tcp 1540 ------- 0 0.0 1.0 101 192
- 1.162123 0 1 tcp 1540 ------- 0 0.0 1.0 101 192
r 1.162246 1 0 ack 40 ------- 0 1.0 0.0 82 173
+ 1.162246 0 1 tcp 1540 ------- 0 0.0 1.0 102 193
- 1.162246 0 1 tcp 1540 ------- 0 0.0 1.0 102 193
r 1.16237 1 0 ack 40 ------- 0 1.0 0.0 83 174
+ 1.16237 0 1 tcp 1540 ------- 0 0.0 1.0 103 194
- 1.16237 0 1 tcp 1540 ------- 0 0.0 1.0 103 194
r 1.162493 1 0 ack 40 ------- 0 1.0 0.0 84 175
+ 1.162493 0 1 tcp 1540 ------- 0 0.0 1.0 104 195
- 1.162493 0 1 tcp 1540 ------- 0 0.0 1.0 104 195
r 1.162616 1 0 ack 40 ------- 0 1.0 0.0 85 176
+ 1.162616 0 1 tcp 1540 ------- 0 0.0 1.0 105 196
- 1.162616 0 1 tcp 1540 ------- 0 0.0 1.0 105 196
r 1.162739 1 0 ack 40 ------- 0 1.0 0.0 86 177
+ 1.162739 0 1 tcp 1540 ------- 0 0.0 1.0 106 197
- 1.162739 0 1 tcp 1540 ------- 0 0.0 1.0 106 197
r 1.162862 1 0 ack 40 ------- 0 1.0 0.0 87 178
+ 1.162862 0 1 tcp 1540 ------- 0 0.0 1.0 107 198
- 1.162862 0 1 tcp 1540 ------- 0 0.0 1.0 107 198
r 1.162986 1 0 ack 40 ------- 0 1.0 0.0 88 179
+ 1.162986 0 1 tcp 1540 ------- 0 0.0 1.0 108 199
- 1.162986 0 1 tcp 1540 ------- 0 0.0 1.0 108 199
r 1.163109 1 0 ack 40 ------- 0 1.0 0.0 89 180
+ 1.163109 0 1 tcp 1540 ------- 0 0.0 1.0 109 200
- 1.163109 0 1 tcp 1540 ------- 0 0.0 1.0 109 200
r 1.163232 1 0 ack 40 ------- 0 1.0 0.0 90 181
+ 1.163232 0 1 tcp 1540 ------- 0 0.0 1.0 110 201
- 1.163232 0 1 tcp 1540 ------- 0 0.0 1.0 110 201
r 1.171014 0 1 tcp 1540 ------- 0 0.0 1.0 91 182
+ 1.171014 1 0 ack 40 ------- 0 1.0 0.0 91 202
- 1.171014 1 0 ack 40 ------- 0 1.0 0.0 91 202
r 1.171138 0 1 tcp 1540 ------- 0 0.0 1.0 92 183
+ 1.171138 1 0 ack 40 ------- 0 1.0 0.0 92 203
- 1.171138 1 0 ack 40 ------- 0 1.0 0.0 92 203
r 1.171261 0 1 tcp 1540 ------- 0 0.0 1.0 93 184
+ 1.171261 1 0 ack 40 ------- 0 1.0 0.0 93 204
- 1.171261 1 0 ack 40 ------- 0 1.0 0.0 93 204
r 1.171384 0 1 tcp 1540 ------- 0 0.0 1.0 94 185
+ 1.171384 1 0 ack 40 ------- 0 1.0 0.0 94 205
- 1.171384 1 0 ack 40 ------- 0 1.0 0.0 94 205
r 1.171507 0 1 tcp 1540 ------- 0 0.0 1.0 95 186
+ 1.171507 1 0 ack 40 ------- 0 1.0 0.0 95 206
- 1.171507 1 0 ack 40 ------- 0 1.0 0.0 95 206
r 1.17163 0 1 tcp 1540 ------- 0 0.0 1.0 96 187
+ 1.17163 1 0 ack 40 ------- 0 1.0 0.0 96 207
- 1.17163 1 0 ack 40 ------- 0 1.0 0.0 96 207
r 1.171754 0 1 tcp 1540 ------- 0 0.0 1.0 97 188
+ 1.171754 1 0 ack 40 ------- 0 1.0 0.0 97 208
- 1.171754 1 0 ack 40 ------- 0 1.0 0.0 97 208
r 1.171877 0 1 tcp 1540 ------- 0 0.0 1.0 98 189
+ 1.171877 1 0 ack 40 ------- 0 1.0 0.0 98 209
- 1.171877 1 0 ack 40 ------- 0 1.0 0.0 98 209
r 1.172 0 1 tcp 1540 ------- 0 0.0 1.0 99 190
+ 1.172 1 0 ack 40 ------- 0 1.0 0.0 99 210
- 1.172 1 0 ack 40 ------- 0 1.0 0.0 99 210
r 1.172123 0 1 tcp 1540 ------- 0 0.0 1.0 100 191
+ 1.172123 1 0 ack 40 ------- 0 1.0 0.0 100 211
- 1.172123 1 0 ack 40 ------- 0 1.0 0.0 100 211
r 1.172246 0 1 tcp 1540 ------- 0 0.0 1.0 101 192
+ 1.172246 1 0 ack 40 ------- 0 1.0 0.0 101 212
- 1.172246 1 0 ack 40 ------- 0 1.0 0.0 101 212
r 1.17237 0 1 tcp 1540 ------- 0 0.0 1.0 102 193
+ 1.17237 1 0 ack 40 ------- 0 1.0 0.0 102 213
- 1.17237 1 0 ack 40 ------- 0 1.0 0.0 102 213
r 1.172493 0 1 tcp 1540 ------- 0 0.0 1.0 103 194
+ 1.172493 1 0 ack 40 ------- 0 1.0 0.0 103 214
- 1.172493 1 0 ack 40 ------- 0 1.0 0.0 103 214
r 1.172616 0 1 tcp 1540 ------- 0 0.0 1.0 104 195
+ 1.172616 1 0 ack 40 ------- 0 1.0 0.0 104 215
- 1.172616 1 0 ack 40 ------- 0 1.0 0.0 104 215
r 1.172739 0 1 tcp 1540 ------- 0 0.0 1.0 105 196
+ 1.172739 1 0 ack 40 ------- 0 1.0 0.0 105 216
- 1.172739 1 0 ack 40 ------- 0 1.0 0.0 105 216
r 1.172862 0 1 tcp 1540 ------- 0 0.0 1.0 106 197
+ 1.172862 1 0 ack 40 ------- 0 1.0 0.0 106 217
- 1.172862 1 0 ack 40 ------- 0 1.0 0.0 106 217