+ 0.1 2 0 tcp 40 ------- 0 2.0 1.0 0 0
- 0.1 2 0 tcp 40 ------- 0 2.0 1.0 0 0
r 0.10416 2 0 tcp 40 ------- 0 2.0 1.0 0 0
+ 0.10416 0 1 tcp 40 ------- 0 2.0 1.0 0 0
- 0.10416 0 1 tcp 40 ------- 0 2.0 1.0 0 0
r 0.10832 0 1 tcp 40 ------- 0 2.0 1.0 0 0
+ 0.10832 1 0 ack 40 ------- 0 1.0 2.0 0 1
- 0.10832 1 0 ack 40 ------- 0 1.0 2.0 0 1
r 0.11248 1 0 ack 40 ------- 0 1.0 2.0 0 1
+ 0.11248 0 2 ack 40 ------- 0 1.0 2.0 0 1
- 0.11248 0 2 ack 40 ------- 0 1.0 2.0 0 1
r 0.11664 0 2 ack 40 ------- 0 1.0 2.0 0 1
+ 0.11664 2 0 tcp 1040 ------- 0 2.0 1.0 1 2
- 0.11664 2 0 tcp 1040 ------- 0 2.0 1.0 1 2
+ 0.11664 2 0 tcp 1040 ------- 0 2.0 1.0 2 3
- 0.1208 2 0 tcp 1040 ------- 0 2.0 1.0 2 3
r 0.1248 2 0 tcp 1040 ------- 0 2.0 1.0 1 2
+ 0.1248 0 1 tcp 1040 ------- 0 2.0 1.0 1 2
- 0.1248 0 1 tcp 1040 ------- 0 2.0 1.0 1 2
r 0.12896 2 0 tcp 1040 ------- 0 2.0 1.0 2 3
+ 0.12896 0 1 tcp 1040 ------- 0 2.0 1.0 2 3
- 0.12896 0 1 tcp 1040 ------- 0 2.0 1.0 2 3
r 0.13296 0 1 tcp 1040 ------- 0 2.0 1.0 1 2
+ 0.13296 1 0 ack 40 ------- 0 1.0 2.0 1 4
- 0.13296 1 0 ack 40 ------- 0 1.0 2.0 1 4
r 0.13712 0 1 tcp 1040 ------- 0 2.0 1.0 2 3
+ 0.13712 1 0 ack 40 ------- 0 1.0 2.0 2 5
- 0.13712 1 0 ack 40 ------- 0 1.0 2.0 2 5
r 0.13712 1 0 ack 40 ------- 0 1.0 2.0 1 4
+ 0.13712 0 2 ack 40 ------- 0 1.0 2.0 1 4
- 0.13712 0 2 ack 40 ------- 0 1.0 2.0 1 4
r 0.14128 1 0 ack 40 ------- 0 1.0 2.0 2 5
+ 0.14128 0 2 ack 40 ------- 0 1.0 2.0 2 5
- 0.14128 0 2 ack 40 ------- 0 1.0 2.0 2 5
r 0.14128 0 2 ack 40 ------- 0 1.0 2.0 1 4
+ 0.14128 2 0 tcp 1040 ------- 0 2.0 1.0 3 6
- 0.14128 2 0 tcp 1040 ------- 0 2.0 1.0 3 6
+ 0.14128 2 0 tcp 1040 ------- 0 2.0 1.0 4 7
r 0.14544 0 2 ack 40 ------- 0 1.0 2.0 2 5
+ 0.14544 2 0 tcp 1040 ------- 0 2.0 1.0 5 8
+ 0.14544 2 0 tcp 1040 ------- 0 2.0 1.0 6 9
- 0.14544 2 0 tcp 1040 ------- 0 2.0 1.0 4 7
r 0.14944 2 0 tcp 1040 ------- 0 2.0 1.0 3 6
+ 0.14944 0 1 tcp 1040 ------- 0 2.0 1.0 3 6
- 0.14944 0 1 tcp 1040 ------- 0 2.0 1.0 3 6
- 0.1496 2 0 tcp 1040 ------- 0 2.0 1.0 5 8
r 0.1536 2 0 tcp 1040 ------- 0 2.0 1.0 4 7
+ 0.1536 0 1 tcp 1040 ------- 0 2.0 1.0 4 7
- 0.1536 0 1 tcp 1040 ------- 0 2.0 1.0 4 7
- 0.15376 2 0 tcp 1040 ------- 0 2.0 1.0 6 9
r 0.1576 0 1 tcp 1040 ------- 0 2.0 1.0 3 6
+ 0.1576 1 0 ack 40 ------- 0 1.0 2.0 3 10
- 0.1576 1 0 ack 40 ------- 0 1.0 2.0 3 10
r 0.15776 2 0 tcp 1040 ------- 0 2.0 1.0 5 8
+ 0.15776 0 1 tcp 1040 ------- 0 2.0 1.0 5 8
- 0.15776 0 1 tcp 1040 ------- 0 2.0 1.0 5 8
r 0.16176 0 1 tcp 1040 ------- 0 2.0 1.0 4 7
+ 0.16176 1 0 ack 40 ------- 0 1.0 2.0 4 11
- 0.16176 1 0 ack 40 ------- 0 1.0 2.0 4 11
r 0.16176 1 0 ack 40 ------- 0 1.0 2.0 3 10
+ 0.16176 0 2 ack 40 ------- 0 1.0 2.0 3 10
- 0.16176 0 2 ack 40 ------- 0 1.0 2.0 3 10
r 0.16192 2 0 tcp 1040 ------- 0 2.0 1.0 6 9
+ 0.16192 0 1 tcp 1040 ------- 0 2.0 1.0 6 9
- 0.16192 0 1 tcp 1040 ------- 0 2.0 1.0 6 9
r 0.16592 0 1 tcp 1040 ------- 0 2.0 1.0 5 8
+ 0.16592 1 0 ack 40 ------- 0 1.0 2.0 5 12
- 0.16592 1 0 ack 40 ------- 0 1.0 2.0 5 12
r 0.16592 1 0 ack 40 ------- 0 1.0 2.0 4 11
+ 0.16592 0 2 ack 40 ------- 0 1.0 2.0 4 11
- 0.16592 0 2 ack 40 ------- 0 1.0 2.0 4 11
r 0.16592 0 2 ack 40 ------- 0 1.0 2.0 3 10
+ 0.16592 2 0 tcp 1040 ------- 0 2.0 1.0 7 13
- 0.16592 2 0 tcp 1040 ------- 0 2.0 1.0 7 13
+ 0.16592 2 0 tcp 1040 ------- 0 2.0 1.0 8 14
r 0.17008 0 1 tcp 1040 ------- 0 2.0 1.0 6 9
+ 0.17008 1 0 ack 40 ------- 0 1.0 2.0 6 15
- 0.17008 1 0 ack 40 ------- 0 1.0 2.0 6 15
r 0.17008 1 0 ack 40 ------- 0 1.0 2.0 5 12
+ 0.17008 0 2 ack 40 ------- 0 1.0 2.0 5 12
- 0.17008 0 2 ack 40 ------- 0 1.0 2.0 5 12
r 0.17008 0 2 ack 40 ------- 0 1.0 2.0 4 11
+ 0.17008 2 0 tcp 1040 ------- 0 2.0 1.0 9 16
+ 0.17008 2 0 tcp 1040 ------- 0 2.0 1.0 10 17
- 0.17008 2 0 tcp 1040 ------- 0 2.0 1.0 8 14
r 0.17408 2 0 tcp 1040 ------- 0 2.0 1.0 7 13
+ 0.17408 0 1 tcp 1040 ------- 0 2.0 1.0 7 13
- 0.17408 0 1 tcp 1040 ------- 0 2.0 1.0 7 13
r 0.17424 1 0 ack 40 ------- 0 1.0 2.0 6 15
+ 0.17424 0 2 ack 40 ------- 0 1.0 2.0 6 15
- 0.17424 0 2 ack 40 ------- 0 1.0 2.0 6 15
r 0.17424 0 2 ack 40 ------- 0 1.0 2.0 5 12
+ 0.17424 2 0 tcp 1040 ------- 0 2.0 1.0 11 18
+ 0.17424 2 0 tcp 1040 ------- 0 2.0 1.0 12 19
- 0.17424 2 0 tcp 1040 ------- 0 2.0 1.0 9 16
r 0.17824 2 0 tcp 1040 ------- 0 2.0 1.0 8 14
+ 0.17824 0 1 tcp 1040 ------- 0 2.0 1.0 8 14
- 0.17824 0 1 tcp 1040 ------- 0 2.0 1.0 8 14
r 0.1784 0 2 ack 40 ------- 0 1.0 2.0 6 15
+ 0.1784 2 0 tcp 1040 ------- 0 2.0 1.0 13 20
+ 0.1784 2 0 tcp 1040 ------- 0 2.0 1.0 14 21
- 0.1784 2 0 tcp 1040 ------- 0 2.0 1.0 10 17
r 0.18224 0 1 tcp 1040 ------- 0 2.0 1.0 7 13
+ 0.18224 1 0 ack 40 ------- 0 1.0 2.0 7 22
- 0.18224 1 0 ack 40 ------- 0 1.0 2.0 7 22
r 0.1824 2 0 tcp 1040 ------- 0 2.0 1.0 9 16
+ 0.1824 0 1 tcp 1040 ------- 0 2.0 1.0 9 16
- 0.1824 0 1 tcp 1040 ------- 0 2.0 1.0 9 16
- 0.18256 2 0 tcp 1040 ------- 0 2.0 1.0 11 18
r 0.1864 0 1 tcp 1040 ------- 0 2.0 1.0 8 14
+ 0.1864 1 0 ack 40 ------- 0 1.0 2.0 8 23
- 0.1864 1 0 ack 40 ------- 0 1.0 2.0 8 23
r 0.1864 1 0 ack 40 ------- 0 1.0 2.0 7 22
+ 0.1864 0 2 ack 40 ------- 0 1.0 2.0 7 22
- 0.1864 0 2 ack 40 ------- 0 1.0 2.0 7 22
r 0.18656 2 0 tcp 1040 ------- 0 2.0 1.0 10 17
+ 0.18656 0 1 tcp 1040 ------- 0 2.0 1.0 10 17
- 0.18656 0 1 tcp 1040 ------- 0 2.0 1.0 10 17
- 0.18672 2 0 tcp 1040 ------- 0 2.0 1.0 12 19
r 0.19056 0 1 tcp 1040 ------- 0 2.0 1.0 9 16
+ 0.19056 1 0 ack 40 ------- 0 1.0 2.0 9 24
- 0.19056 1 0 ack 40 ------- 0 1.0 2.0 9 24
r 0.19056 1 0 ack 40 ------- 0 1.0 2.0 8 23
+ 0.19056 0 2 ack 40 ------- 0 1.0 2.0 8 23
- 0.19056 0 2 ack 40 ------- 0 1.0 2.0 8 23
r 0.19056 0 2 ack 40 ------- 0 1.0 2.0 7 22
+ 0.19056 2 0 tcp 1040 ------- 0 2.0 1.0 15 25
+ 0.19056 2 0 tcp 1040 ------- 0 2.0 1.0 16 26
r 0.19072 2 0 tcp 1040 ------- 0 2.0 1.0 11 18
+ 0.19072 0 1 tcp 1040 ------- 0 2.0 1.0 11 18
- 0.19072 0 1 tcp 1040 ------- 0 2.0 1.0 11 18
- 0.19088 2 0 tcp 1040 ------- 0 2.0 1.0 13 20
r 0.19472 0 1 tcp 1040 ------- 0 2.0 1.0 10 17
+ 0.19472 1 0 ack 40 ------- 0 1.0 2.0 10 27
- 0.19472 1 0 ack 40 ------- 0 1.0 2.0 10 27
r 0.19472 1 0 ack 40 ------- 0 1.0 2.0 9 24
+ 0.19472 0 2 ack 40 ------- 0 1.0 2.0 9 24
- 0.19472 0 2 ack 40 ------- 0 1.0 2.0 9 24
r 0.19472 0 2 ack 40 ------- 0 1.0 2.0 8 23
+ 0.19472 2 0 tcp 1040 ------- 0 2.0 1.0 17 28
+ 0.19472 2 0 tcp 1040 ------- 0 2.0 1.0 18 29
r 0.19488 2 0 tcp 1040 ------- 0 2.0 1.0 12 19
+ 0.19488 0 1 tcp 1040 ------- 0 2.0 1.0 12 19
- 0.19488 0 1 tcp 1040 ------- 0 2.0 1.0 12 19
- 0.19504 2 0 tcp 1040 ------- 0 2.0 1.0 14 21
r 0.19888 0 1 tcp 1040 ------- 0 2.0 1.0 11 18
+ 0.19888 1 0 ack 40 ------- 0 1.0 2.0 11 30
- 0.19888 1 0 ack 40 ------- 0 1.0 2.0 11 30
r 0.19888 1 0 ack 40 ------- 0 1.0 2.0 10 27
+ 0.19888 0 2 ack 40 ------- 0 1.0 2.0 10 27
- 0.19888 0 2 ack 40 ------- 0 1.0 2.0 10 27
r 0.19888 0 2 ack 40 ------- 0 1.0 2.0 9 24
+ 0.19888 2 0 tcp 1040 ------- 0 2.0 1.0 19 31
+ 0.19888 2 0 tcp 1040 ------- 0 2.0 1.0 20 32
r 0.19904 2 0 tcp 1040 ------- 0 2.0 1.0 13 20
+ 0.19904 0 1 tcp 1040 ------- 0 2.0 1.0 13 20
- 0.19904 0 1 tcp 1040 ------- 0 2.0 1.0 13 20
- 0.1992 2 0 tcp 1040 ------- 0 2.0 1.0 15 25
r 0.20304 0 1 tcp 1040 ------- 0 2.0 1.0 12 19
+ 0.20304 1 0 ack 40 ------- 0 1.0 2.0 12 33
- 0.20304 1 0 ack 40 ------- 0 1.0 2.0 12 33
r 0.20304 1 0 ack 40 ------- 0 1.0 2.0 11 30
+ 0.20304 0 2 ack 40 ------- 0 1.0 2.0 11 30
- 0.20304 0 2 ack 40 ------- 0 1.0 2.0 11 30
r 0.20304 0 2 ack 40 ------- 0 1.0 2.0 10 27
+ 0.20304 2 0 tcp 1040 ------- 0 2.0 1.0 21 34
+ 0.20304 2 0 tcp 1040 ------- 0 2.0 1.0 22 35
r 0.2032 2 0 tcp 1040 ------- 0 2.0 1.0 14 21
+ 0.2032 0 1 tcp 1040 ------- 0 2.0 1.0 14 21
- 0.2032 0 1 tcp 1040 ------- 0 2.0 1.0 14 21
- 0.20336 2 0 tcp 1040 ------- 0 2.0 1.0 16 26
r 0.2072 0 1 tcp 1040 ------- 0 2.0 1.0 13 20
+ 0.2072 1 0 ack 40 ------- 0 1.0 2.0 13 36
- 0.2072 1 0 ack 40 ------- 0 1.0 2.0 13 36
r 0.2072 1 0 ack 40 ------- 0 1.0 2.0 12 33
+ 0.2072 0 2 ack 40 ------- 0 1.0 2.0 12 33
- 0.2072 0 2 ack 40 ------- 0 1.0 2.0 12 33
r 0.2072 0 2 ack 40 ------- 0 1.0 2.0 11 30
+ 0.2072 2 0 tcp 1040 ------- 0 2.0 1.0 23 37
+ 0.2072 2 0 tcp 1040 ------- 0 2.0 1.0 24 38
r 0.20736 2 0 tcp 1040 ------- 0 2.0 1.0 15 25
+ 0.20736 0 1 tcp 1040 ------- 0 2.0 1.0 15 25
- 0.20736 0 1 tcp 1040 ------- 0 2.0 1.0 15 25
- 0.20752 2 0 tcp 1040 ------- 0 2.0 1.0 17 28
r 0.21136 0 1 tcp 1040 ------- 0 2.0 1.0 14 21
+ 0.21136 1 0 ack 40 ------- 0 1.0 2.0 14 39
- 0.21136 1 0 ack 40 ------- 0 1.0 2.0 14 39
r 0.21136 1 0 ack 40 ------- 0 1.0 2.0 13 36
+ 0.21136 0 2 ack 40 ------- 0 1.0 2.0 13 36
- 0.21136 0 2 ack 40 ------- 0 1.0 2.0 13 36
r 0.21136 0 2 ack 40 ------- 0 1.0 2.0 12 33
+ 0.21136 2 0 tcp 1040 ------- 0 2.0 1.0 25 40
+ 0.21136 2 0 tcp 1040 ------- 0 2.0 1.0 26 41
r 0.21152 2 0 tcp 1040 ------- 0 2.0 1.0 16 26
+ 0.21152 0 1 tcp 1040 ------- 0 2.0 1.0 16 26
- 0.21152 0 1 tcp 1040 ------- 0 2.0 1.0 16 26
- 0.21168 2 0 tcp 1040 ------- 0 2.0 1.0 18 29
r 0.21552 0 1 tcp 1040 ------- 0 2.0 1.0 15 25
+ 0.21552 1 0 ack 40 ------- 0 1.0 2.0 15 42
- 0.21552 1 0 ack 40 ------- 0 1.0 2.0 15 42
r 0.21552 1 0 ack 40 ------- 0 1.0 2.0 14 39
+ 0.21552 0 2 ack 40 ------- 0 1.0 2.0 14 39
- 0.21552 0 2 ack 40 ------- 0 1.0 2.0 14 39
r 0.21552 0 2 ack 40 ------- 0 1.0 2.0 13 36
+ 0.21552 2 0 tcp 1040 ------- 0 2.0 1.0 27 43
+ 0.21552 2 0 tcp 1040 ------- 0 2.0 1.0 28 44
r 0.21568 2 0 tcp 1040 ------- 0 2.0 1.0 17 28
+ 0.21568 0 1 tcp 1040 ------- 0 2.0 1.0 17 28
- 0.21568 0 1 tcp 1040 ------- 0 2.0 1.0 17 28
- 0.21584 2 0 tcp 1040 ------- 0 2.0 1.0 19 31
r 0.21968 0 1 tcp 1040 ------- 0 2.0 1.0 16 26
+ 0.21968 1 0 ack 40 ------- 0 1.0 2.0 16 45
- 0.21968 1 0 ack 40 ------- 0 1.0 2.0 16 45
r 0.21968 1 0 ack 40 ------- 0 1.0 2.0 15 42
+ 0.21968 0 2 ack 40 ------- 0 1.0 2.0 15 42
- 0.21968 0 2 ack 40 ------- 0 1.0 2.0 15 42
r 0.21968 0 2 ack 40 ------- 0 1.0 2.0 14 39
+ 0.21968 2 0 tcp 1040 ------- 0 2.0 1.0 29 46
+ 0.21968 2 0 tcp 1040 ------- 0 2.0 1.0 30 47
r 0.21984 2 0 tcp 1040 ------- 0 2.0 1.0 18 29
+ 0.21984 0 1 tcp 1040 ------- 0 2.0 1.0 18 29
- 0.21984 0 1 tcp 1040 ------- 0 2.0 1.0 18 29
- 0.22 2 0 tcp 1040 ------- 0 2.0 1.0 20 32
r 0.22384 0 1 tcp 1040 ------- 0 2.0 1.0 17 28
+ 0.22384 1 0 ack 40 ------- 0 1.0 2.0 17 48
- 0.22384 1 0 ack 40 ------- 0 1.0 2.0 17 48
r 0.22384 1 0 ack 40 ------- 0 1.0 2.0 16 45
+ 0.22384 0 2 ack 40 ------- 0 1.0 2.0 16 45
- 0.22384 0 2 ack 40 ------- 0 1.0 2.0 16 45
r 0.22384 0 2 ack 40 ------- 0 1.0 2.0 15 42
+ 0.22384 2 0 tcp 1040 ------- 0 2.0 1.0 31 49
+ 0.22384 2 0 tcp 1040 ------- 0 2.0 1.0 32 50
r 0.224 2 0 tcp 1040 ------- 0 2.0 1.0 19 31
+ 0.224 0 1 tcp 1040 ------- 0 2.0 1.0 19 31
- 0.224 0 1 tcp 1040 ------- 0 2.0 1.0 19 31
- 0.22416 2 0 tcp 1040 ------- 0 2.0 1.0 21 34
r 0.228 0 1 tcp 1040 ------- 0 2.0 1.0 18 29
+ 0.228 1 0 ack 40 ------- 0 1.0 2.0 18 51
- 0.228 1 0 ack 40 ------- 0 1.0 2.0 18 51
r 0.228 1 0 ack 40 ------- 0 1.0 2.0 17 48
+ 0.228 0 2 ack 40 ------- 0 1.0 2.0 17 48
- 0.228 0 2 ack 40 ------- 0 1.0 2.0 17 48
r 0.228 0 2 ack 40 ------- 0 1.0 2.0 16 45
+ 0.228 2 0 tcp 1040 ------- 0 2.0 1.0 33 52
+ 0.228 2 0 tcp 1040 ------- 0 2.0 1.0 34 53
r 0.22816 2 0 tcp 1040 ------- 0 2.0 1.0 20 32
+ 0.22816 0 1 tcp 1040 ------- 0 2.0 1.0 20 32
- 0.22816 0 1 tcp 1040 ------- 0 2.0 1.0 20 32
- 0.22832 2 0 tcp 1040 ------- 0 2.0 1.0 22 35
r 0.23216 0 1 tcp 1040 ------- 0 2.0 1.0 19 31
+ 0.23216 1 0 ack 40 ------- 0 1.0 2.0 19 54
- 0.23216 1 0 ack 40 ------- 0 1.0 2.0 19 54
r 0.23216 1 0 ack 40 ------- 0 1.0 2.0 18 51
+ 0.23216 0 2 ack 40 ------- 0 1.0 2.0 18 51
- 0.23216 0 2 ack 40 ------- 0 1.0 2.0 18 51
r 0.23216 0 2 ack 40 ------- 0 1.0 2.0 17 48
+ 0.23216 2 0 tcp 1040 ------- 0 2.0 1.0 35 55
+ 0.23216 2 0 tcp 1040 ------- 0 2.0 1.0 36 56
r 0.23232 2 0 tcp 1040 ------- 0 2.0 1.0 21 34
+ 0.23232 0 1 tcp 1040 ------- 0 2.0 1.0 21 34
- 0.23232 0 1 tcp 1040 ------- 0 2.0 1.0 21 34
- 0.23248 2 0 tcp 1040 ------- 0 2.0 1.0 23 37
r 0.23632 0 1 tcp 1040 ------- 0 2.0 1.0 20 32
+ 0.23632 1 0 ack 40 ------- 0 1.0 2.0 20 57
- 0.23632 1 0 ack 40 ------- 0 1.0 2.0 20 57
r 0.23632 1 0 ack 40 ------- 0 1.0 2.0 19 54
+ 0.23632 0 2 ack 40 ------- 0 1.0 2.0 19 54
- 0.23632 0 2 ack 40 ------- 0 1.0 2.0 19 54
r 0.23632 0 2 ack 40 ------- 0 1.0 2.0 18 51
+ 0.23632 2 0 tcp 1040 ------- 0 2.0 1.0 37 58
+ 0.23632 2 0 tcp 1040 ------- 0 2.0 1.0 38 59
r 0.23648 2 0 tcp 1040 ------- 0 2.0 1.0 22 35
+ 0.23648 0 1 tcp 1040 ------- 0 2.0 1.0 22 35
- 0.23648 0 1 tcp 1040 ------- 0 2.0 1.0 22 35
- 0.23664 2 0 tcp 1040 ------- 0 2.0 1.0 24 38
r 0.24048 0 1 tcp 1040 ------- 0 2.0 1.0 21 34
+ 0.24048 1 0 ack 40 ------- 0 1.0 2.0 21 60
- 0.24048 1 0 ack 40 ------- 0 1.0 2.0 21 60
r 0.24048 1 0 ack 40 ------- 0 1.0 2.0 20 57
+ 0.24048 0 2 ack 40 ------- 0 1.0 2.0 20 57
- 0.24048 0 2 ack 40 ------- 0 1.0 2.0 20 57
r 0.24048 0 2 ack 40 ------- 0 1.0 2.0 19 54
+ 0.24048 2 0 tcp 1040 ------- 0 2.0 1.0 39 61
r 0.24064 2 0 tcp 1040 ------- 0 2.0 1.0 23 37
+ 0.24064 0 1 tcp 1040 ------- 0 2.0 1.0 23 37
- 0.24064 0 1 tcp 1040 ------- 0 2.0 1.0 23 37
- 0.2408 2 0 tcp 1040 ------- 0 2.0 1.0 25 40
r 0.24464 0 1 tcp 1040 ------- 0 2.0 1.0 22 35
+ 0.24464 1 0 ack 40 ------- 0 1.0 2.0 22 62
- 0.24464 1 0 ack 40 ------- 0 1.0 2.0 22 62
r 0.24464 1 0 ack 40 ------- 0 1.0 2.0 21 60
+ 0.24464 0 2 ack 40 ------- 0 1.0 2.0 21 60
- 0.24464 0 2 ack 40 ------- 0 1.0 2.0 21 60
r 0.24464 0 2 ack 40 ------- 0 1.0 2.0 20 57
+ 0.24464 2 0 tcp 1040 ------- 0 2.0 1.0 40 63
r 0.2448 2 0 tcp 1040 ------- 0 2.0 1.0 24 38
+ 0.2448 0 1 tcp 1040 ------- 0 2.0 1.0 24 38
- 0.2448 0 1 tcp 1040 ------- 0 2.0 1.0 24 38
- 0.24496 2 0 tcp 1040 ------- 0 2.0 1.0 26 41
r 0.2488 0 1 tcp 1040 ------- 0 2.0 1.0 23 37
+ 0.2488 1 0 ack 40 ------- 0 1.0 2.0 23 64
- 0.2488 1 0 ack 40 ------- 0 1.0 2.0 23 64
r 0.2488 1 0 ack 40 ------- 0 1.0 2.0 22 62
+ 0.2488 0 2 ack 40 ------- 0 1.0 2.0 22 62
- 0.2488 0 2 ack 40 ------- 0 1.0 2.0 22 62
r 0.2488 0 2 ack 40 ------- 0 1.0 2.0 21 60
+ 0.2488 2 0 tcp 1040 ------- 0 2.0 1.0 41 65
r 0.24896 2 0 tcp 1040 ------- 0 2.0 1.0 25 40
+ 0.24896 0 1 tcp 1040 ------- 0 2.0 1.0 25 40
- 0.24896 0 1 tcp 1040 ------- 0 2.0 1.0 25 40
- 0.24912 2 0 tcp 1040 ------- 0 2.0 1.0 27 43
r 0.25296 0 1 tcp 1040 ------- 0 2.0 1.0 24 38
+ 0.25296 1 0 ack 40 ------- 0 1.0 2.0 24 66
- 0.25296 1 0 ack 40 ------- 0 1.0 2.0 24 66
r 0.25296 1 0 ack 40 ------- 0 1.0 2.0 23 64
+ 0.25296 0 2 ack 40 ------- 0 1.0 2.0 23 64
- 0.25296 0 2 ack 40 ------- 0 1.0 2.0 23 64
r 0.25296 0 2 ack 40 ------- 0 1.0 2.0 22 62
+ 0.25296 2 0 tcp 1040 ------- 0 2.0 1.0 42 67
r 0.25312 2 0 tcp 1040 ------- 0 2.0 1.0 26 41
+ 0.25312 0 1 tcp 1040 ------- 0 2.0 1.0 26 41
- 0.25312 0 1 tcp 1040 ------- 0 2.0 1.0 26 41
- 0.25328 2 0 tcp 1040 ------- 0 2.0 1.0 28 44
r 0.25712 0 1 tcp 1040 ------- 0 2.0 1.0 25 40
+ 0.25712 1 0 ack 40 ------- 0 1.0 2.0 25 68
- 0.25712 1 0 ack 40 ------- 0 1.0 2.0 25 68
r 0.25712 1 0 ack 40 ------- 0 1.0 2.0 24 66
+ 0.25712 0 2 ack 40 ------- 0 1.0 2.0 24 66
- 0.25712 0 2 ack 40 ------- 0 1.0 2.0 24 66
r 0.25712 0 2 ack 40 ------- 0 1.0 2.0 23 64
+ 0.25712 2 0 tcp 1040 ------- 0 2.0 1.0 43 69
r 0.25728 2 0 tcp 1040 ------- 0 2.0 1.0 27 43
+ 0.25728 0 1 tcp 1040 ------- 0 2.0 1.0 27 43
- 0.25728 0 1 tcp 1040 ------- 0 2.0 1.0 27 43
- 0.25744 2 0 tcp 1040 ------- 0 2.0 1.0 29 46
r 0.26128 1 0 ack 40 ------- 0 1.0 2.0 25 68
+ 0.26128 0 2 ack 40 ------- 0 1.0 2.0 25 68
- 0.26128 0 2 ack 40 ------- 0 1.0 2.0 25 68
r 0.26128 0 1 tcp 1040 ------- 0 2.0 1.0 26 41
+ 0.26128 1 0 ack 40 ------- 0 1.0 2.0 26 70
- 0.26128 1 0 ack 40 ------- 0 1.0 2.0 26 70
r 0.26128 0 2 ack 40 ------- 0 1.0 2.0 24 66
+ 0.26128 2 0 tcp 1040 ------- 0 2.0 1.0 44 71
r 0.26144 2 0 tcp 1040 ------- 0 2.0 1.0 28 44
+ 0.26144 0 1 tcp 1040 ------- 0 2.0 1.0 28 44
- 0.26144 0 1 tcp 1040 ------- 0 2.0 1.0 28 44
- 0.2616 2 0 tcp 1040 ------- 0 2.0 1.0 30 47
r 0.26544 0 2 ack 40 ------- 0 1.0 2.0 25 68
+ 0.26544 2 0 tcp 1040 ------- 0 2.0 1.0 45 72
r 0.26544 0 1 tcp 1040 ------- 0 2.0 1.0 27 43
+ 0.26544 1 0 ack 40 ------- 0 1.0 2.0 27 73
- 0.26544 1 0 ack 40 ------- 0 1.0 2.0 27 73
r 0.26544 1 0 ack 40 ------- 0 1.0 2.0 26 70
+ 0.26544 0 2 ack 40 ------- 0 1.0 2.0 26 70
- 0.26544 0 2 ack 40 ------- 0 1.0 2.0 26 70
r 0.2656 2 0 tcp 1040 ------- 0 2.0 1.0 29 46
+ 0.2656 0 1 tcp 1040 ------- 0 2.0 1.0 29 46
- 0.2656 0 1 tcp 1040 ------- 0 2.0 1.0 29 46
- 0.26576 2 0 tcp 1040 ------- 0 2.0 1.0 31 49
r 0.2696 0 1 tcp 1040 ------- 0 2.0 1.0 28 44
+ 0.2696 1 0 ack 40 ------- 0 1.0 2.0 28 74
- 0.2696 1 0 ack 40 ------- 0 1.0 2.0 28 74
r 0.2696 1 0 ack 40 ------- 0 1.0 2.0 27 73
+ 0.2696 0 2 ack 40 ------- 0 1.0 2.0 27 73
- 0.2696 0 2 ack 40 ------- 0 1.0 2.0 27 73
r 0.2696 0 2 ack 40 ------- 0 1.0 2.0 26 70
+ 0.2696 2 0 tcp 1040 ------- 0 2.0 1.0 46 75
r 0.26976 2 0 tcp 1040 ------- 0 2.0 1.0 30 47
+ 0.26976 0 1 tcp 1040 ------- 0 2.0 1.0 30 47
- 0.26976 0 1 tcp 1040 ------- 0 2.0 1.0 30 47
- 0.26992 2 0 tcp 1040 ------- 0 2.0 1.0 32 50
r 0.27376 0 1 tcp 1040 ------- 0 2.0 1.0 29 46
+ 0.27376 1 0 ack 40 ------- 0 1.0 2.0 29 76
- 0.27376 1 0 ack 40 ------- 0 1.0 2.0 29 76
r 0.27376 1 0 ack 40 ------- 0 1.0 2.0 28 74
+ 0.27376 0 2 ack 40 ------- 0 1.0 2.0 28 74
- 0.27376 0 2 ack 40 ------- 0 1.0 2.0 28 74
r 0.27376 0 2 ack 40 ------- 0 1.0 2.0 27 73
+ 0.27376 2 0 tcp 1040 ------- 0 2.0 1.0 47 77
r 0.27392 2 0 tcp 1040 ------- 0 2.0 1.0 31 49
+ 0.27392 0 1 tcp 1040 ------- 0 2.0 1.0 31 49
- 0.27392 0 1 tcp 1040 ------- 0 2.0 1.0 31 49
- 0.27408 2 0 tcp 1040 ------- 0 2.0 1.0 33 52
r 0.27792 0 1 tcp 1040 ------- 0 2.0 1.0 30 47
+ 0.27792 1 0 ack 40 ------- 0 1.0 2.0 30 78
- 0.27792 1 0 ack 40 ------- 0 1.0 2.0 30 78
r 0.27792 1 0 ack 40 ------- 0 1.0 2.0 29 76
+ 0.27792 0 2 ack 40 ------- 0 1.0 2.0 29 76
- 0.27792 0 2 ack 40 ------- 0 1.0 2.0 29 76
r 0.27792 0 2 ack 40 ------- 0 1.0 2.0 28 74
+ 0.27792 2 0 tcp 1040 ------- 0 2.0 1.0 48 79
r 0.27808 2 0 tcp 1040 ------- 0 2.0 1.0 32 50
+ 0.27808 0 1 tcp 1040 ------- 0 2.0 1.0 32 50
- 0.27808 0 1 tcp 1040 ------- 0 2.0 1.0 32 50
- 0.27824 2 0 tcp 1040 ------- 0 2.0 1.0 34 53
r 0.28208 0 1 tcp 1040 ------- 0 2.0 1.0 31 49
+ 0.28208 1 0 ack 40 ------- 0 1.0 2.0 31 80
- 0.28208 1 0 ack 40 ------- 0 1.0 2.0 31 80
r 0.28208 1 0 ack 40 ------- 0 1.0 2.0 30 78
+ 0.28208 0 2 ack 40 ------- 0 1.0 2.0 30 78
- 0.28208 0 2 ack 40 ------- 0 1.0 2.0 30 78
r 0.28208 0 2 ack 40 ------- 0 1.0 2.0 29 76
+ 0.28208 2 0 tcp 1040 ------- 0 2.0 1.0 49 81
r 0.28224 2 0 tcp 1040 ------- 0 2.0 1.0 33 52
+ 0.28224 0 1 tcp 1040 ------- 0 2.0 1.0 33 52
- 0.28224 0 1 tcp 1040 ------- 0 2.0 1.0 33 52
- 0.2824 2 0 tcp 1040 ------- 0 2.0 1.0 35 55
r 0.28624 0 1 tcp 1040 ------- 0 2.0 1.0 32 50
+ 0.28624 1 0 ack 40 ------- 0 1.0 2.0 32 82
- 0.28624 1 0 ack 40 ------- 0 1.0 2.0 32 82
r 0.28624 1 0 ack 40 ------- 0 1.0 2.0 31 80
+ 0.28624 0 2 ack 40 ------- 0 1.0 2.0 31 80
- 0.28624 0 2 ack 40 ------- 0 1.0 2.0 31 80
r 0.28624 0 2 ack 40 ------- 0 1.0 2.0 30 78
+ 0.28624 2 0 tcp 1040 ------- 0 2.0 1.0 50 83
r 0.2864 2 0 tcp 1040 ------- 0 2.0 1.0 34 53
+ 0.2864 0 1 tcp 1040 ------- 0 2.0 1.0 34 53
- 0.2864 0 1 tcp 1040 ------- 0 2.0 1.0 34 53
- 0.28656 2 0 tcp 1040 ------- 0 2.0 1.0 36 56
r 0.2904 0 1 tcp 1040 ------- 0 2.0 1.0 33 52
+ 0.2904 1 0 ack 40 ------- 0 1.0 2.0 33 84
- 0.2904 1 0 ack 40 ------- 0 1.0 2.0 33 84
r 0.2904 1 0 ack 40 ------- 0 1.0 2.0 32 82
+ 0.2904 0 2 ack 40 ------- 0 1.0 2.0 32 82
- 0.2904 0 2 ack 40 ------- 0 1.0 2.0 32 82
r 0.2904 0 2 ack 40 ------- 0 1.0 2.0 31 80
+ 0.2904 2 0 tcp 1040 ------- 0 2.0 1.0 51 85
r 0.29056 2 0 tcp 1040 ------- 0 2.0 1.0 35 55
+ 0.29056 0 1 tcp 1040 ------- 0 2.0 1.0 35 55
- 0.29056 0 1 tcp 1040 ------- 0 2.0 1.0 35 55
- 0.29072 2 0 tcp 1040 ------- 0 2.0 1.0 37 58
r 0.29456 0 1 tcp 1040 ------- 0 2.0 1.0 34 53
+ 0.29456 1 0 ack 40 ------- 0 1.0 2.0 34 86
- 0.29456 1 0 ack 40 ------- 0 1.0 2.0 34 86
r 0.29456 1 0 ack 40 ------- 0 1.0 2.0 33 84
+ 0.29456 0 2 ack 40 ------- 0 1.0 2.0 33 84
- 0.29456 0 2 ack 40 ------- 0 1.0 2.0 33 84
r 0.29456 0 2 ack 40 ------- 0 1.0 2.0 32 82
+ 0.29456 2 0 tcp 1040 ------- 0 2.0 1.0 52 87
r 0.29472 2 0 tcp 1040 ------- 0 2.0 1.0 36 56
+ 0.29472 0 1 tcp 1040 ------- 0 2.0 1.0 36 56
- 0.29472 0 1 tcp 1040 ------- 0 2.0 1.0 36 56
- 0.29488 2 0 tcp 1040 ------- 0 2.0 1.0 38 59
r 0.29872 0 1 tcp 1040 ------- 0 2.0 1.0 35 55
+ 0.29872 1 0 ack 40 ------- 0 1.0 2.0 35 88
- 0.29872 1 0 ack 40 ------- 0 1.0 2.0 35 88
r 0.29872 1 0 ack 40 ------- 0 1.0 2.0 34 86
+ 0.29872 0 2 ack 40 ------- 0 1.0 2.0 34 86
- 0.29872 0 2 ack 40 ------- 0 1.0 2.0 34 86
r 0.29872 0 2 ack 40 ------- 0 1.0 2.0 33 84
+ 0.29872 2 0 tcp 1040 ------- 0 2.0 1.0 53 89
r 0.29888 2 0 tcp 1040 ------- 0 2.0 1.0 37 58
+ 0.29888 0 1 tcp 1040 ------- 0 2.0 1.0 37 58
- 0.29888 0 1 tcp 1040 ------- 0 2.0 1.0 37 58
- 0.29904 2 0 tcp 1040 ------- 0 2.0 1.0 39 61
r 0.30288 0 1 tcp 1040 ------- 0 2.0 1.0 36 56
+ 0.30288 1 0 ack 40 ------- 0 1.0 2.0 36 90
- 0.30288 1 0 ack 40 ------- 0 1.0 2.0 36 90
r 0.30288 1 0 ack 40 ------- 0 1.0 2.0 35 88
+ 0.30288 0 2 ack 40 ------- 0 1.0 2.0 35 88
- 0.30288 0 2 ack 40 ------- 0 1.0 2.0 35 88
r 0.30288 0 2 ack 40 ------- 0 1.0 2.0 34 86
+ 0.30288 2 0 tcp 1040 ------- 0 2.0 1.0 54 91
r 0.30304 2 0 tcp 1040 ------- 0 2.0 1.0 38 59
+ 0.30304 0 1 tcp 1040 ------- 0 2.0 1.0 38 59
- 0.30304 0 1 tcp 1040 ------- 0 2.0 1.0 38 59
- 0.3032 2 0 tcp 1040 ------- 0 2.0 1.0 40 63
r 0.30704 0 1 tcp 1040 ------- 0 2.0 1.0 37 58
+ 0.30704 1 0 ack 40 ------- 0 1.0 2.0 37 92
- 0.30704 1 0 ack 40 ------- 0 1.0 2.0 37 92
r 0.30704 1 0 ack 40 ------- 0 1.0 2.0 36 90
+ 0.30704 0 2 ack 40 ------- 0 1.0 2.0 36 90
- 0.30704 0 2 ack 40 ------- 0 1.0 2.0 36 90
r 0.30704 0 2 ack 40 ------- 0 1.0 2.0 35 88
+ 0.30704 2 0 tcp 1040 ------- 0 2.0 1.0 55 93
r 0.3072 2 0 tcp 1040 ------- 0 2.0 1.0 39 61
+ 0.3072 0 1 tcp 1040 ------- 0 2.0 1.0 39 61
- 0.3072 0 1 tcp 1040 ------- 0 2.0 1.0 39 61
- 0.30736 2 0 tcp 1040 ------- 0 2.0 1.0 41 65
r 0.3112 0 1 tcp 1040 ------- 0 2.0 1.0 38 59
+ 0.3112 1 0 ack 40 ------- 0 1.0 2.0 38 94
- 0.3112 1 0 ack 40 ------- 0 1.0 2.0 38 94
r 0.3112 1 0 ack 40 ------- 0 1.0 2.0 37 92
+ 0.3112 0 2 ack 40 ------- 0 1.0 2.0 37 92
- 0.3112 0 2 ack 40 ------- 0 1.0 2.0 37 92
r 0.3112 0 2 ack 40 ------- 0 1.0 2.0 36 90
+ 0.3112 2 0 tcp 1040 ------- 0 2.0 1.0 56 95
r 0.31136 2 0 tcp 1040 ------- 0 2.0 1.0 40 63
+ 0.31136 0 1 tcp 1040 ------- 0 2.0 1.0 40 63
- 0.31136 0 1 tcp 1040 ------- 0 2.0 1.0 40 63
- 0.31152 2 0 tcp 1040 ------- 0 2.0 1.0 42 67
r 0.31536 0 1 tcp 1040 ------- 0 2.0 1.0 39 61
+ 0.31536 1 0 ack 40 ------- 0 1.0 2.0 39 96
- 0.31536 1 0 ack 40 ------- 0 1.0 2.0 39 96
r 0.31536 1 0 ack 40 ------- 0 1.0 2.0 38 94
+ 0.31536 0 2 ack 40 ------- 0 1.0 2.0 38 94
- 0.31536 0 2 ack 40 ------- 0 1.0 2.0 38 94
r 0.31536 0 2 ack 40 ------- 0 1.0 2.0 37 92
+ 0.31536 2 0 tcp 1040 ------- 0 2.0 1.0 57 97
r 0.31552 2 0 tcp 1040 ------- 0 2.0 1.0 41 65
+ 0.31552 0 1 tcp 1040 ------- 0 2.0 1.0 41 65
- 0.31552 0 1 tcp 1040 ------- 0 2.0 1.0 41 65
- 0.31568 2 0 tcp 1040 ------- 0 2.0 1.0 43 69
r 0.31952 0 1 tcp 1040 ------- 0 2.0 1.0 40 63
+ 0.31952 1 0 ack 40 ------- 0 1.0 2.0 40 98
- 0.31952 1 0 ack 40 ------- 0 1.0 2.0 40 98
r 0.31952 1 0 ack 40 ------- 0 1.0 2.0 39 96
+ 0.31952 0 2 ack 40 ------- 0 1.0 2.0 39 96
- 0.31952 0 2 ack 40 ------- 0 1.0 2.0 39 96
r 0.31952 0 2 ack 40 ------- 0 1.0 2.0 38 94
+ 0.31952 2 0 tcp 1040 ------- 0 2.0 1.0 58 99
r 0.31968 2 0 tcp 1040 ------- 0 2.0 1.0 42 67
+ 0.31968 0 1 tcp 1040 ------- 0 2.0 1.0 42 67
- 0.31968 0 1 tcp 1040 ------- 0 2.0 1.0 42 67
- 0.31984 2 0 tcp 1040 ------- 0 2.0 1.0 44 71
r 0.32368 0 1 tcp 1040 ------- 0 2.0 1.0 41 65
+ 0.32368 1 0 ack 40 ------- 0 1.0 2.0 41 100
- 0.32368 1 0 ack 40 ------- 0 1.0 2.0 41 100
r 0.32368 1 0 ack 40 ------- 0 1.0 2.0 40 98
+ 0.32368 0 2 ack 40 ------- 0 1.0 2.0 40 98
- 0.32368 0 2 ack 40 ------- 0 1.0 2.0 40 98
r 0.32368 0 2 ack 40 ------- 0 1.0 2.0 39 96
+ 0.32368 2 0 tcp 1040 ------- 0 2.0 1.0 59 101
r 0.32384 2 0 tcp 1040 ------- 0 2.0 1.0 43 69
+ 0.32384 0 1 tcp 1040 ------- 0 2.0 1.0 43 69
- 0.32384 0 1 tcp 1040 ------- 0 2.0 1.0 43 69
- 0.324 2 0 tcp 1040 ------- 0 2.0 1.0 45 72
r 0.32784 0 1 tcp 1040 ------- 0 2.0 1.0 42 67
+ 0.32784 1 0 ack 40 ------- 0 1.0 2.0 42 102
- 0.32784 1 0 ack 40 ------- 0 1.0 2.0 42 102
r 0.32784 1 0 ack 40 ------- 0 1.0 2.0 41 100
+ 0.32784 0 2 ack 40 ------- 0 1.0 2.0 41 100
- 0.32784 0 2 ack 40 ------- 0 1.0 2.0 41 100
r 0.32784 0 2 ack 40 ------- 0 1.0 2.0 40 98
+ 0.32784 2 0 tcp 1040 ------- 0 2.0 1.0 60 103
r 0.328 2 0 tcp 1040 ------- 0 2.0 1.0 44 71
+ 0.328 0 1 tcp 1040 ------- 0 2.0 1.0 44 71
- 0.328 0 1 tcp 1040 ------- 0 2.0 1.0 44 71
- 0.32816 2 0 tcp 1040 ------- 0 2.0 1.0 46 75
r 0.332 0 1 tcp 1040 ------- 0 2.0 1.0 43 69
+ 0.332 1 0 ack 40 ------- 0 1.0 2.0 43 104
- 0.332 1 0 ack 40 ------- 0 1.0 2.0 43 104
r 0.332 1 0 ack 40 ------- 0 1.0 2.0 42 102
+ 0.332 0 2 ack 40 ------- 0 1.0 2.0 42 102
- 0.332 0 2 ack 40 ------- 0 1.0 2.0 42 102
r 0.332 0 2 ack 40 ------- 0 1.0 2.0 41 100
+ 0.332 2 0 tcp 1040 ------- 0 2.0 1.0 61 105
r 0.33216 2 0 tcp 1040 ------- 0 2.0 1.0 45 72
+ 0.33216 0 1 tcp 1040 ------- 0 2.0 1.0 45 72
- 0.33216 0 1 tcp 1040 ------- 0 2.0 1.0 45 72
- 0.33232 2 0 tcp 1040 ------- 0 2.0 1.0 47 77
r 0.33616 0 1 tcp 1040 ------- 0 2.0 1.0 44 71
+ 0.33616 1 0 ack 40 ------- 0 1.0 2.0 44 106
- 0.33616 1 0 ack 40 ------- 0 1.0 2.0 44 106
r 0.33616 1 0 ack 40 ------- 0 1.0 2.0 43 104
+ 0.33616 0 2 ack 40 ------- 0 1.0 2.0 43 104
- 0.33616 0 2 ack 40 ------- 0 1.0 2.0 43 104
r 0.33616 0 2 ack 40 ------- 0 1.0 2.0 42 102
+ 0.33616 2 0 tcp 1040 ------- 0 2.0 1.0 62 107
r 0.33632 2 0 tcp 1040 ------- 0 2.0 1.0 46 75
+ 0.33632 0 1 tcp 1040 ------- 0 2.0 1.0 46 75
- 0.33632 0 1 tcp 1040 ------- 0 2.0 1.0 46 75
- 0.33648 2 0 tcp 1040 ------- 0 2.0 1.0 48 79
r 0.34032 0 1 tcp 1040 ------- 0 2.0 1.0 45 72
+ 0.34032 1 0 ack 40 ------- 0 1.0 2.0 45 108
- 0.34032 1 0 ack 40 ------- 0 1.0 2.0 45 108
r 0.34032 1 0 ack 40 ------- 0 1.0 2.0 44 106
+ 0.34032 0 2 ack 40 ------- 0 1.0 2.0 44 106
- 0.34032 0 2 ack 40 ------- 0 1.0 2.0 44 106
r 0.34032 0 2 ack 40 ------- 0 1.0 2.0 43 104
+ 0.34032 2 0 tcp 1040 ------- 0 2.0 1.0 63 109
r 0.34048 2 0 tcp 1040 ------- 0 2.0 1.0 47 77
+ 0.34048 0 1 tcp 1040 ------- 0 2.0 1.0 47 77
- 0.34048 0 1 tcp 1040 ------- 0 2.0 1.0 47 77
- 0.34064 2 0 tcp 1040 ------- 0 2.0 1.0 49 81
r 0.34448 0 1 tcp 1040 ------- 0 2.0 1.0 46 75
+ 0.34448 1 0 ack 40 ------- 0 1.0 2.0 46 110
- 0.34448 1 0 ack 40 ------- 0 1.0 2.0 46 110
r 0.34448 1 0 ack 40 ------- 0 1.0 2.0 45 108
+ 0.34448 0 2 ack 40 ------- 0 1.0 2.0 45 108
- 0.34448 0 2 ack 40 ------- 0 1.0 2.0 45 108
r 0.34448 0 2 ack 40 ------- 0 1.0 2.0 44 106
+ 0.34448 2 0 tcp 1040 ------- 0 2.0 1.0 64 111
r 0.34464 2 0 tcp 1040 ------- 0 2.0 1.0 48 79
+ 0.34464 0 1 tcp 1040 ------- 0 2.0 1.0 48 79
- 0.34464 0 1 tcp 1040 ------- 0 2.0 1.0 48 79
- 0.3448 2 0 tcp 1040 ------- 0 2.0 1.0 50 83
r 0.34864 0 1 tcp 1040 ------- 0 2.0 1.0 47 77
+ 0.34864 1 0 ack 40 ------- 0 1.0 2.0 47 112
- 0.34864 1 0 ack 40 ------- 0 1.0 2.0 47 112
r 0.34864 1 0 ack 40 ------- 0 1.0 2.0 46 110
+ 0.34864 0 2 ack 40 ------- 0 1.0 2.0 46 110
- 0.34864 0 2 ack 40 ------- 0 1.0 2.0 46 110
r 0.34864 0 2 ack 40 ------- 0 1.0 2.0 45 108
+ 0.34864 2 0 tcp 1040 ------- 0 2.0 1.0 65 113
r 0.3488 2 0 tcp 1040 ------- 0 2.0 1.0 49 81
+ 0.3488 0 1 tcp 1040 ------- 0 2.0 1.0 49 81
- 0.3488 0 1 tcp 1040 ------- 0 2.0 1.0 49 81
- 0.34896 2 0 tcp 1040 ------- 0 2.0 1.0 51 85
r 0.3528 0 1 tcp 1040 ------- 0 2.0 1.0 48 79
+ 0.3528 1 0 ack 40 ------- 0 1.0 2.0 48 114
- 0.3528 1 0 ack 40 ------- 0 1.0 2.0 48 114
r 0.3528 1 0 ack 40 ------- 0 1.0 2.0 47 112
+ 0.3528 0 2 ack 40 ------- 0 1.0 2.0 47 112
- 0.3528 0 2 ack 40 ------- 0 1.0 2.0 47 112
r 0.3528 0 2 ack 40 ------- 0 1.0 2.0 46 110
+ 0.3528 2 0 tcp 1040 ------- 0 2.0 1.0 66 115
r 0.35296 2 0 tcp 1040 ------- 0 2.0 1.0 50 83
+ 0.35296 0 1 tcp 1040 ------- 0 2.0 1.0 50 83
- 0.35296 0 1 tcp 1040 ------- 0 2.0 1.0 50 83
- 0.35312 2 0 tcp 1040 ------- 0 2.0 1.0 52 87
r 0.35696 0 1 tcp 1040 ------- 0 2.0 1.0 49 81
+ 0.35696 1 0 ack 40 ------- 0 1.0 2.0 49 116
- 0.35696 1 0 ack 40 ------- 0 1.0 2.0 49 116
r 0.35696 1 0 ack 40 ------- 0 1.0 2.0 48 114
+ 0.35696 0 2 ack 40 ------- 0 1.0 2.0 48 114
- 0.35696 0 2 ack 40 ------- 0 1.0 2.0 48 114
r 0.35696 0 2 ack 40 ------- 0 1.0 2.0 47 112
+ 0.35696 2 0 tcp 1040 ------- 0 2.0 1.0 67 117
r 0.35712 2 0 tcp 1040 ------- 0 2.0 1.0 51 85
+ 0.35712 0 1 tcp 1040 ------- 0 2.0 1.0 51 85
- 0.35712 0 1 tcp 1040 ------- 0 2.0 1.0 51 85
- 0.35728 2 0 tcp 1040 ------- 0 2.0 1.0 53 89
r 0.36112 0 1 tcp 1040 ------- 0 2.0 1.0 50 83
+ 0.36112 1 0 ack 40 ------- 0 1.0 2.0 50 118
- 0.36112 1 0 ack 40 ------- 0 1.0 2.0 50 118
r 0.36112 1 0 ack 40 ------- 0 1.0 2.0 49 116
+ 0.36112 0 2 ack 40 ------- 0 1.0 2.0 49 116
- 0.36112 0 2 ack 40 ------- 0 1.0 2.0 49 116
r 0.36112 0 2 ack 40 ------- 0 1.0 2.0 48 114
+ 0.36112 2 0 tcp 1040 ------- 0 2.0 1.0 68 119
r 0.36128 2 0 tcp 1040 ------- 0 2.0 1.0 52 87
+ 0.36128 0 1 tcp 1040 ------- 0 2.0 1.0 52 87
- 0.36128 0 1 tcp 1040 ------- 0 2.0 1.0 52 87
- 0.36144 2 0 tcp 1040 ------- 0 2.0 1.0 54 91
r 0.36528 0 1 tcp 1040 ------- 0 2.0 1.0 51 85
+ 0.36528 1 0 ack 40 ------- 0 1.0 2.0 51 120
- 0.36528 1 0 ack 40 ------- 0 1.0 2.0 51 120
r 0.36528 1 0 ack 40 ------- 0 1.0 2.0 50 118
+ 0.36528 0 2 ack 40 ------- 0 1.0 2.0 50 118
- 0.36528 0 2 ack 40 ------- 0 1.0 2.0 50 118
r 0.36528 0 2 ack 40 ------- 0 1.0 2.0 49 116
+ 0.36528 2 0 tcp 1040 ------- 0 2.0 1.0 69 121
r 0.36544 2 0 tcp 1040 ------- 0 2.0 1.0 53 89
+ 0.36544 0 1 tcp 1040 ------- 0 2.0 1.0 53 89
- 0.36544 0 1 tcp 1040 ------- 0 2.0 1.0 53 89
- 0.3656 2 0 tcp 1040 ------- 0 2.0 1.0 55 93
r 0.36944 0 1 tcp 1040 ------- 0 2.0 1.0 52 87
+ 0.36944 1 0 ack 40 ------- 0 1.0 2.0 52 122
- 0.36944 1 0 ack 40 ------- 0 1.0 2.0 52 122
r 0.36944 1 0 ack 40 ------- 0 1.0 2.0 51 120
+ 0.36944 0 2 ack 40 ------- 0 1.0 2.0 51 120
- 0.36944 0 2 ack 40 ------- 0 1.0 2.0 51 120
r 0.36944 0 2 ack 40 ------- 0 1.0 2.0 50 118
+ 0.36944 2 0 tcp 1040 ------- 0 2.0 1.0 70 123
r 0.3696 2 0 tcp 1040 ------- 0 2.0 1.0 54 91
+ 0.3696 0 1 tcp 1040 ------- 0 2.0 1.0 54 91