+ 0.5 0 1 cbr 500 ------- 0 0.0 1.0 0 0
- 0.5 0 1 cbr 500 ------- 0 0.0 1.0 0 0
+ 0.505 0 1 cbr 500 ------- 0 0.0 1.0 1 1
- 0.505 0 1 cbr 500 ------- 0 0.0 1.0 1 1
+ 0.51 0 1 cbr 500 ------- 0 0.0 1.0 2 2
- 0.51 0 1 cbr 500 ------- 0 0.0 1.0 2 2
r 0.514 0 1 cbr 500 ------- 0 0.0 1.0 0 0
+ 0.515 0 1 cbr 500 ------- 0 0.0 1.0 3 3
- 0.515 0 1 cbr 500 ------- 0 0.0 1.0 3 3
r 0.519 0 1 cbr 500 ------- 0 0.0 1.0 1 1
+ 0.52 0 1 cbr 500 ------- 0 0.0 1.0 4 4
- 0.52 0 1 cbr 500 ------- 0 0.0 1.0 4 4
r 0.524 0 1 cbr 500 ------- 0 0.0 1.0 2 2
+ 0.525 0 1 cbr 500 ------- 0 0.0 1.0 5 5
- 0.525 0 1 cbr 500 ------- 0 0.0 1.0 5 5
r 0.529 0 1 cbr 500 ------- 0 0.0 1.0 3 3
+ 0.53 0 1 cbr 500 ------- 0 0.0 1.0 6 6
- 0.53 0 1 cbr 500 ------- 0 0.0 1.0 6 6
r 0.534 0 1 cbr 500 ------- 0 0.0 1.0 4 4
+ 0.535 0 1 cbr 500 ------- 0 0.0 1.0 7 7
- 0.535 0 1 cbr 500 ------- 0 0.0 1.0 7 7
r 0.539 0 1 cbr 500 ------- 0 0.0 1.0 5 5
+ 0.54 0 1 cbr 500 ------- 0 0.0 1.0 8 8
- 0.54 0 1 cbr 500 ------- 0 0.0 1.0 8 8
r 0.544 0 1 cbr 500 ------- 0 0.0 1.0 6 6
+ 0.545 0 1 cbr 500 ------- 0 0.0 1.0 9 9
- 0.545 0 1 cbr 500 ------- 0 0.0 1.0 9 9
r 0.549 0 1 cbr 500 ------- 0 0.0 1.0 7 7
+ 0.55 0 1 cbr 500 ------- 0 0.0 1.0 10 10
- 0.55 0 1 cbr 500 ------- 0 0.0 1.0 10 10
r 0.554 0 1 cbr 500 ------- 0 0.0 1.0 8 8
+ 0.555 0 1 cbr 500 ------- 0 0.0 1.0 11 11
- 0.555 0 1 cbr 500 ------- 0 0.0 1.0 11 11
r 0.559 0 1 cbr 500 ------- 0 0.0 1.0 9 9
+ 0.56 0 1 cbr 500 ------- 0 0.0 1.0 12 12
- 0.56 0 1 cbr 500 ------- 0 0.0 1.0 12 12
r 0.564 0 1 cbr 500 ------- 0 0.0 1.0 10 10
+ 0.565 0 1 cbr 500 ------- 0 0.0 1.0 13 13
- 0.565 0 1 cbr 500 ------- 0 0.0 1.0 13 13
r 0.569 0 1 cbr 500 ------- 0 0.0 1.0 11 11
+ 0.57 0 1 cbr 500 ------- 0 0.0 1.0 14 14
- 0.57 0 1 cbr 500 ------- 0 0.0 1.0 14 14
r 0.574 0 1 cbr 500 ------- 0 0.0 1.0 12 12
+ 0.575 0 1 cbr 500 ------- 0 0.0 1.0 15 15
- 0.575 0 1 cbr 500 ------- 0 0.0 1.0 15 15
r 0.579 0 1 cbr 500 ------- 0 0.0 1.0 13 13
+ 0.58 0 1 cbr 500 ------- 0 0.0 1.0 16 16
- 0.58 0 1 cbr 500 ------- 0 0.0 1.0 16 16
r 0.584 0 1 cbr 500 ------- 0 0.0 1.0 14 14
+ 0.585 0 1 cbr 500 ------- 0 0.0 1.0 17 17
- 0.585 0 1 cbr 500 ------- 0 0.0 1.0 17 17
r 0.589 0 1 cbr 500 ------- 0 0.0 1.0 15 15
+ 0.59 0 1 cbr 500 ------- 0 0.0 1.0 18 18
- 0.59 0 1 cbr 500 ------- 0 0.0 1.0 18 18
r 0.594 0 1 cbr 500 ------- 0 0.0 1.0 16 16
+ 0.595 0 1 cbr 500 ------- 0 0.0 1.0 19 19
- 0.595 0 1 cbr 500 ------- 0 0.0 1.0 19 19
r 0.599 0 1 cbr 500 ------- 0 0.0 1.0 17 17
+ 0.6 0 1 cbr 500 ------- 0 0.0 1.0 20 20
- 0.6 0 1 cbr 500 ------- 0 0.0 1.0 20 20
r 0.604 0 1 cbr 500 ------- 0 0.0 1.0 18 18
+ 0.605 0 1 cbr 500 ------- 0 0.0 1.0 21 21
- 0.605 0 1 cbr 500 ------- 0 0.0 1.0 21 21
r 0.609 0 1 cbr 500 ------- 0 0.0 1.0 19 19
+ 0.61 0 1 cbr 500 ------- 0 0.0 1.0 22 22
- 0.61 0 1 cbr 500 ------- 0 0.0 1.0 22 22
r 0.614 0 1 cbr 500 ------- 0 0.0 1.0 20 20
+ 0.615 0 1 cbr 500 ------- 0 0.0 1.0 23 23
- 0.615 0 1 cbr 500 ------- 0 0.0 1.0 23 23
r 0.619 0 1 cbr 500 ------- 0 0.0 1.0 21 21
+ 0.62 0 1 cbr 500 ------- 0 0.0 1.0 24 24
- 0.62 0 1 cbr 500 ------- 0 0.0 1.0 24 24
r 0.624 0 1 cbr 500 ------- 0 0.0 1.0 22 22
+ 0.625 0 1 cbr 500 ------- 0 0.0 1.0 25 25
- 0.625 0 1 cbr 500 ------- 0 0.0 1.0 25 25
r 0.629 0 1 cbr 500 ------- 0 0.0 1.0 23 23
+ 0.63 0 1 cbr 500 ------- 0 0.0 1.0 26 26
- 0.63 0 1 cbr 500 ------- 0 0.0 1.0 26 26
r 0.634 0 1 cbr 500 ------- 0 0.0 1.0 24 24
+ 0.635 0 1 cbr 500 ------- 0 0.0 1.0 27 27
- 0.635 0 1 cbr 500 ------- 0 0.0 1.0 27 27
r 0.639 0 1 cbr 500 ------- 0 0.0 1.0 25 25
+ 0.64 0 1 cbr 500 ------- 0 0.0 1.0 28 28
- 0.64 0 1 cbr 500 ------- 0 0.0 1.0 28 28
r 0.644 0 1 cbr 500 ------- 0 0.0 1.0 26 26
+ 0.645 0 1 cbr 500 ------- 0 0.0 1.0 29 29
- 0.645 0 1 cbr 500 ------- 0 0.0 1.0 29 29
r 0.649 0 1 cbr 500 ------- 0 0.0 1.0 27 27
+ 0.65 0 1 cbr 500 ------- 0 0.0 1.0 30 30
- 0.65 0 1 cbr 500 ------- 0 0.0 1.0 30 30
r 0.654 0 1 cbr 500 ------- 0 0.0 1.0 28 28
+ 0.655 0 1 cbr 500 ------- 0 0.0 1.0 31 31
- 0.655 0 1 cbr 500 ------- 0 0.0 1.0 31 31
r 0.659 0 1 cbr 500 ------- 0 0.0 1.0 29 29
+ 0.66 0 1 cbr 500 ------- 0 0.0 1.0 32 32
- 0.66 0 1 cbr 500 ------- 0 0.0 1.0 32 32
r 0.664 0 1 cbr 500 ------- 0 0.0 1.0 30 30
+ 0.665 0 1 cbr 500 ------- 0 0.0 1.0 33 33
- 0.665 0 1 cbr 500 ------- 0 0.0 1.0 33 33
r 0.669 0 1 cbr 500 ------- 0 0.0 1.0 31 31
+ 0.67 0 1 cbr 500 ------- 0 0.0 1.0 34 34
- 0.67 0 1 cbr 500 ------- 0 0.0 1.0 34 34
r 0.674 0 1 cbr 500 ------- 0 0.0 1.0 32 32
+ 0.675 0 1 cbr 500 ------- 0 0.0 1.0 35 35
- 0.675 0 1 cbr 500 ------- 0 0.0 1.0 35 35
r 0.679 0 1 cbr 500 ------- 0 0.0 1.0 33 33
+ 0.68 0 1 cbr 500 ------- 0 0.0 1.0 36 36
- 0.68 0 1 cbr 500 ------- 0 0.0 1.0 36 36
r 0.684 0 1 cbr 500 ------- 0 0.0 1.0 34 34
+ 0.685 0 1 cbr 500 ------- 0 0.0 1.0 37 37
- 0.685 0 1 cbr 500 ------- 0 0.0 1.0 37 37
r 0.689 0 1 cbr 500 ------- 0 0.0 1.0 35 35
+ 0.69 0 1 cbr 500 ------- 0 0.0 1.0 38 38
- 0.69 0 1 cbr 500 ------- 0 0.0 1.0 38 38
r 0.694 0 1 cbr 500 ------- 0 0.0 1.0 36 36
+ 0.695 0 1 cbr 500 ------- 0 0.0 1.0 39 39
- 0.695 0 1 cbr 500 ------- 0 0.0 1.0 39 39
r 0.699 0 1 cbr 500 ------- 0 0.0 1.0 37 37
+ 0.7 0 1 cbr 500 ------- 0 0.0 1.0 40 40
- 0.7 0 1 cbr 500 ------- 0 0.0 1.0 40 40
r 0.704 0 1 cbr 500 ------- 0 0.0 1.0 38 38
+ 0.705 0 1 cbr 500 ------- 0 0.0 1.0 41 41
- 0.705 0 1 cbr 500 ------- 0 0.0 1.0 41 41
r 0.709 0 1 cbr 500 ------- 0 0.0 1.0 39 39
+ 0.71 0 1 cbr 500 ------- 0 0.0 1.0 42 42
- 0.71 0 1 cbr 500 ------- 0 0.0 1.0 42 42
r 0.714 0 1 cbr 500 ------- 0 0.0 1.0 40 40
+ 0.715 0 1 cbr 500 ------- 0 0.0 1.0 43 43
- 0.715 0 1 cbr 500 ------- 0 0.0 1.0 43 43
r 0.719 0 1 cbr 500 ------- 0 0.0 1.0 41 41
+ 0.72 0 1 cbr 500 ------- 0 0.0 1.0 44 44
- 0.72 0 1 cbr 500 ------- 0 0.0 1.0 44 44
r 0.724 0 1 cbr 500 ------- 0 0.0 1.0 42 42
+ 0.725 0 1 cbr 500 ------- 0 0.0 1.0 45 45
- 0.725 0 1 cbr 500 ------- 0 0.0 1.0 45 45
r 0.729 0 1 cbr 500 ------- 0 0.0 1.0 43 43
+ 0.73 0 1 cbr 500 ------- 0 0.0 1.0 46 46
- 0.73 0 1 cbr 500 ------- 0 0.0 1.0 46 46
r 0.734 0 1 cbr 500 ------- 0 0.0 1.0 44 44
+ 0.735 0 1 cbr 500 ------- 0 0.0 1.0 47 47
- 0.735 0 1 cbr 500 ------- 0 0.0 1.0 47 47
r 0.739 0 1 cbr 500 ------- 0 0.0 1.0 45 45
+ 0.74 0 1 cbr 500 ------- 0 0.0 1.0 48 48
- 0.74 0 1 cbr 500 ------- 0 0.0 1.0 48 48
r 0.744 0 1 cbr 500 ------- 0 0.0 1.0 46 46
+ 0.745 0 1 cbr 500 ------- 0 0.0 1.0 49 49
- 0.745 0 1 cbr 500 ------- 0 0.0 1.0 49 49
r 0.749 0 1 cbr 500 ------- 0 0.0 1.0 47 47
+ 0.75 0 1 cbr 500 ------- 0 0.0 1.0 50 50
- 0.75 0 1 cbr 500 ------- 0 0.0 1.0 50 50
r 0.754 0 1 cbr 500 ------- 0 0.0 1.0 48 48
+ 0.755 0 1 cbr 500 ------- 0 0.0 1.0 51 51
- 0.755 0 1 cbr 500 ------- 0 0.0 1.0 51 51
r 0.759 0 1 cbr 500 ------- 0 0.0 1.0 49 49
+ 0.76 0 1 cbr 500 ------- 0 0.0 1.0 52 52
- 0.76 0 1 cbr 500 ------- 0 0.0 1.0 52 52
r 0.764 0 1 cbr 500 ------- 0 0.0 1.0 50 50
+ 0.765 0 1 cbr 500 ------- 0 0.0 1.0 53 53
- 0.765 0 1 cbr 500 ------- 0 0.0 1.0 53 53
r 0.769 0 1 cbr 500 ------- 0 0.0 1.0 51 51
+ 0.77 0 1 cbr 500 ------- 0 0.0 1.0 54 54
- 0.77 0 1 cbr 500 ------- 0 0.0 1.0 54 54
r 0.774 0 1 cbr 500 ------- 0 0.0 1.0 52 52
+ 0.775 0 1 cbr 500 ------- 0 0.0 1.0 55 55
- 0.775 0 1 cbr 500 ------- 0 0.0 1.0 55 55
r 0.779 0 1 cbr 500 ------- 0 0.0 1.0 53 53
+ 0.78 0 1 cbr 500 ------- 0 0.0 1.0 56 56
- 0.78 0 1 cbr 500 ------- 0 0.0 1.0 56 56
r 0.784 0 1 cbr 500 ------- 0 0.0 1.0 54 54
+ 0.785 0 1 cbr 500 ------- 0 0.0 1.0 57 57
- 0.785 0 1 cbr 500 ------- 0 0.0 1.0 57 57
r 0.789 0 1 cbr 500 ------- 0 0.0 1.0 55 55
+ 0.79 0 1 cbr 500 ------- 0 0.0 1.0 58 58
- 0.79 0 1 cbr 500 ------- 0 0.0 1.0 58 58
r 0.794 0 1 cbr 500 ------- 0 0.0 1.0 56 56
+ 0.795 0 1 cbr 500 ------- 0 0.0 1.0 59 59
- 0.795 0 1 cbr 500 ------- 0 0.0 1.0 59 59
r 0.799 0 1 cbr 500 ------- 0 0.0 1.0 57 57
+ 0.8 0 1 cbr 500 ------- 0 0.0 1.0 60 60
- 0.8 0 1 cbr 500 ------- 0 0.0 1.0 60 60
r 0.804 0 1 cbr 500 ------- 0 0.0 1.0 58 58
+ 0.805 0 1 cbr 500 ------- 0 0.0 1.0 61 61
- 0.805 0 1 cbr 500 ------- 0 0.0 1.0 61 61
r 0.809 0 1 cbr 500 ------- 0 0.0 1.0 59 59
+ 0.81 0 1 cbr 500 ------- 0 0.0 1.0 62 62
- 0.81 0 1 cbr 500 ------- 0 0.0 1.0 62 62
r 0.814 0 1 cbr 500 ------- 0 0.0 1.0 60 60
+ 0.815 0 1 cbr 500 ------- 0 0.0 1.0 63 63
- 0.815 0 1 cbr 500 ------- 0 0.0 1.0 63 63
r 0.819 0 1 cbr 500 ------- 0 0.0 1.0 61 61
+ 0.82 0 1 cbr 500 ------- 0 0.0 1.0 64 64
- 0.82 0 1 cbr 500 ------- 0 0.0 1.0 64 64
r 0.824 0 1 cbr 500 ------- 0 0.0 1.0 62 62
+ 0.825 0 1 cbr 500 ------- 0 0.0 1.0 65 65
- 0.825 0 1 cbr 500 ------- 0 0.0 1.0 65 65
r 0.829 0 1 cbr 500 ------- 0 0.0 1.0 63 63
+ 0.83 0 1 cbr 500 ------- 0 0.0 1.0 66 66
- 0.83 0 1 cbr 500 ------- 0 0.0 1.0 66 66
r 0.834 0 1 cbr 500 ------- 0 0.0 1.0 64 64
+ 0.835 0 1 cbr 500 ------- 0 0.0 1.0 67 67
- 0.835 0 1 cbr 500 ------- 0 0.0 1.0 67 67
r 0.839 0 1 cbr 500 ------- 0 0.0 1.0 65 65
+ 0.84 0 1 cbr 500 ------- 0 0.0 1.0 68 68
- 0.84 0 1 cbr 500 ------- 0 0.0 1.0 68 68
r 0.844 0 1 cbr 500 ------- 0 0.0 1.0 66 66
+ 0.845 0 1 cbr 500 ------- 0 0.0 1.0 69 69
- 0.845 0 1 cbr 500 ------- 0 0.0 1.0 69 69
r 0.849 0 1 cbr 500 ------- 0 0.0 1.0 67 67
+ 0.85 0 1 cbr 500 ------- 0 0.0 1.0 70 70
- 0.85 0 1 cbr 500 ------- 0 0.0 1.0 70 70
r 0.854 0 1 cbr 500 ------- 0 0.0 1.0 68 68
+ 0.855 0 1 cbr 500 ------- 0 0.0 1.0 71 71
- 0.855 0 1 cbr 500 ------- 0 0.0 1.0 71 71
r 0.859 0 1 cbr 500 ------- 0 0.0 1.0 69 69
+ 0.86 0 1 cbr 500 ------- 0 0.0 1.0 72 72
- 0.86 0 1 cbr 500 ------- 0 0.0 1.0 72 72
r 0.864 0 1 cbr 500 ------- 0 0.0 1.0 70 70
+ 0.865 0 1 cbr 500 ------- 0 0.0 1.0 73 73
- 0.865 0 1 cbr 500 ------- 0 0.0 1.0 73 73
r 0.869 0 1 cbr 500 ------- 0 0.0 1.0 71 71
+ 0.87 0 1 cbr 500 ------- 0 0.0 1.0 74 74
- 0.87 0 1 cbr 500 ------- 0 0.0 1.0 74 74
r 0.874 0 1 cbr 500 ------- 0 0.0 1.0 72 72
+ 0.875 0 1 cbr 500 ------- 0 0.0 1.0 75 75
- 0.875 0 1 cbr 500 ------- 0 0.0 1.0 75 75
r 0.879 0 1 cbr 500 ------- 0 0.0 1.0 73 73
+ 0.88 0 1 cbr 500 ------- 0 0.0 1.0 76 76
- 0.88 0 1 cbr 500 ------- 0 0.0 1.0 76 76
r 0.884 0 1 cbr 500 ------- 0 0.0 1.0 74 74
+ 0.885 0 1 cbr 500 ------- 0 0.0 1.0 77 77
- 0.885 0 1 cbr 500 ------- 0 0.0 1.0 77 77
r 0.889 0 1 cbr 500 ------- 0 0.0 1.0 75 75
+ 0.89 0 1 cbr 500 ------- 0 0.0 1.0 78 78
- 0.89 0 1 cbr 500 ------- 0 0.0 1.0 78 78
r 0.894 0 1 cbr 500 ------- 0 0.0 1.0 76 76
+ 0.895 0 1 cbr 500 ------- 0 0.0 1.0 79 79
- 0.895 0 1 cbr 500 ------- 0 0.0 1.0 79 79
r 0.899 0 1 cbr 500 ------- 0 0.0 1.0 77 77
+ 0.9 0 1 cbr 500 ------- 0 0.0 1.0 80 80
- 0.9 0 1 cbr 500 ------- 0 0.0 1.0 80 80
r 0.904 0 1 cbr 500 ------- 0 0.0 1.0 78 78
+ 0.905 0 1 cbr 500 ------- 0 0.0 1.0 81 81
- 0.905 0 1 cbr 500 ------- 0 0.0 1.0 81 81
r 0.909 0 1 cbr 500 ------- 0 0.0 1.0 79 79
+ 0.91 0 1 cbr 500 ------- 0 0.0 1.0 82 82
- 0.91 0 1 cbr 500 ------- 0 0.0 1.0 82 82
r 0.914 0 1 cbr 500 ------- 0 0.0 1.0 80 80
+ 0.915 0 1 cbr 500 ------- 0 0.0 1.0 83 83
- 0.915 0 1 cbr 500 ------- 0 0.0 1.0 83 83
r 0.919 0 1 cbr 500 ------- 0 0.0 1.0 81 81
+ 0.92 0 1 cbr 500 ------- 0 0.0 1.0 84 84
- 0.92 0 1 cbr 500 ------- 0 0.0 1.0 84 84
r 0.924 0 1 cbr 500 ------- 0 0.0 1.0 82 82
+ 0.925 0 1 cbr 500 ------- 0 0.0 1.0 85 85
- 0.925 0 1 cbr 500 ------- 0 0.0 1.0 85 85
r 0.929 0 1 cbr 500 ------- 0 0.0 1.0 83 83
+ 0.93 0 1 cbr 500 ------- 0 0.0 1.0 86 86
- 0.93 0 1 cbr 500 ------- 0 0.0 1.0 86 86
r 0.934 0 1 cbr 500 ------- 0 0.0 1.0 84 84
+ 0.935 0 1 cbr 500 ------- 0 0.0 1.0 87 87
- 0.935 0 1 cbr 500 ------- 0 0.0 1.0 87 87
r 0.939 0 1 cbr 500 ------- 0 0.0 1.0 85 85
+ 0.94 0 1 cbr 500 ------- 0 0.0 1.0 88 88
- 0.94 0 1 cbr 500 ------- 0 0.0 1.0 88 88
r 0.944 0 1 cbr 500 ------- 0 0.0 1.0 86 86
+ 0.945 0 1 cbr 500 ------- 0 0.0 1.0 89 89
- 0.945 0 1 cbr 500 ------- 0 0.0 1.0 89 89
r 0.949 0 1 cbr 500 ------- 0 0.0 1.0 87 87
+ 0.95 0 1 cbr 500 ------- 0 0.0 1.0 90 90
- 0.95 0 1 cbr 500 ------- 0 0.0 1.0 90 90
r 0.954 0 1 cbr 500 ------- 0 0.0 1.0 88 88
+ 0.955 0 1 cbr 500 ------- 0 0.0 1.0 91 91
- 0.955 0 1 cbr 500 ------- 0 0.0 1.0 91 91
r 0.959 0 1 cbr 500 ------- 0 0.0 1.0 89 89
+ 0.96 0 1 cbr 500 ------- 0 0.0 1.0 92 92
- 0.96 0 1 cbr 500 ------- 0 0.0 1.0 92 92
r 0.964 0 1 cbr 500 ------- 0 0.0 1.0 90 90
+ 0.965 0 1 cbr 500 ------- 0 0.0 1.0 93 93
- 0.965 0 1 cbr 500 ------- 0 0.0 1.0 93 93
r 0.969 0 1 cbr 500 ------- 0 0.0 1.0 91 91
+ 0.97 0 1 cbr 500 ------- 0 0.0 1.0 94 94
- 0.97 0 1 cbr 500 ------- 0 0.0 1.0 94 94
r 0.974 0 1 cbr 500 ------- 0 0.0 1.0 92 92
+ 0.975 0 1 cbr 500 ------- 0 0.0 1.0 95 95
- 0.975 0 1 cbr 500 ------- 0 0.0 1.0 95 95
r 0.979 0 1 cbr 500 ------- 0 0.0 1.0 93 93
+ 0.98 0 1 cbr 500 ------- 0 0.0 1.0 96 96
- 0.98 0 1 cbr 500 ------- 0 0.0 1.0 96 96
r 0.984 0 1 cbr 500 ------- 0 0.0 1.0 94 94
+ 0.985 0 1 cbr 500 ------- 0 0.0 1.0 97 97
- 0.985 0 1 cbr 500 ------- 0 0.0 1.0 97 97
r 0.989 0 1 cbr 500 ------- 0 0.0 1.0 95 95
+ 0.99 0 1 cbr 500 ------- 0 0.0 1.0 98 98
- 0.99 0 1 cbr 500 ------- 0 0.0 1.0 98 98
r 0.994 0 1 cbr 500 ------- 0 0.0 1.0 96 96
+ 0.995 0 1 cbr 500 ------- 0 0.0 1.0 99 99
- 0.995 0 1 cbr 500 ------- 0 0.0 1.0 99 99
r 0.999 0 1 cbr 500 ------- 0 0.0 1.0 97 97
+ 1 0 1 cbr 500 ------- 0 0.0 1.0 100 100
- 1 0 1 cbr 500 ------- 0 0.0 1.0 100 100
r 1.004 0 1 cbr 500 ------- 0 0.0 1.0 98 98
+ 1.005 0 1 cbr 500 ------- 0 0.0 1.0 101 101
- 1.005 0 1 cbr 500 ------- 0 0.0 1.0 101 101
r 1.009 0 1 cbr 500 ------- 0 0.0 1.0 99 99
+ 1.01 0 1 cbr 500 ------- 0 0.0 1.0 102 102
- 1.01 0 1 cbr 500 ------- 0 0.0 1.0 102 102
r 1.014 0 1 cbr 500 ------- 0 0.0 1.0 100 100
+ 1.015 0 1 cbr 500 ------- 0 0.0 1.0 103 103
- 1.015 0 1 cbr 500 ------- 0 0.0 1.0 103 103
r 1.019 0 1 cbr 500 ------- 0 0.0 1.0 101 101
+ 1.02 0 1 cbr 500 ------- 0 0.0 1.0 104 104
- 1.02 0 1 cbr 500 ------- 0 0.0 1.0 104 104
r 1.024 0 1 cbr 500 ------- 0 0.0 1.0 102 102
+ 1.025 0 1 cbr 500 ------- 0 0.0 1.0 105 105
- 1.025 0 1 cbr 500 ------- 0 0.0 1.0 105 105
r 1.029 0 1 cbr 500 ------- 0 0.0 1.0 103 103
+ 1.03 0 1 cbr 500 ------- 0 0.0 1.0 106 106
- 1.03 0 1 cbr 500 ------- 0 0.0 1.0 106 106
r 1.034 0 1 cbr 500 ------- 0 0.0 1.0 104 104
+ 1.035 0 1 cbr 500 ------- 0 0.0 1.0 107 107
- 1.035 0 1 cbr 500 ------- 0 0.0 1.0 107 107
r 1.039 0 1 cbr 500 ------- 0 0.0 1.0 105 105
+ 1.04 0 1 cbr 500 ------- 0 0.0 1.0 108 108
- 1.04 0 1 cbr 500 ------- 0 0.0 1.0 108 108
r 1.044 0 1 cbr 500 ------- 0 0.0 1.0 106 106
+ 1.045 0 1 cbr 500 ------- 0 0.0 1.0 109 109
- 1.045 0 1 cbr 500 ------- 0 0.0 1.0 109 109
r 1.049 0 1 cbr 500 ------- 0 0.0 1.0 107 107
+ 1.05 0 1 cbr 500 ------- 0 0.0 1.0 110 110
- 1.05 0 1 cbr 500 ------- 0 0.0 1.0 110 110
r 1.054 0 1 cbr 500 ------- 0 0.0 1.0 108 108
+ 1.055 0 1 cbr 500 ------- 0 0.0 1.0 111 111
- 1.055 0 1 cbr 500 ------- 0 0.0 1.0 111 111
r 1.059 0 1 cbr 500 ------- 0 0.0 1.0 109 109
+ 1.06 0 1 cbr 500 ------- 0 0.0 1.0 112 112
- 1.06 0 1 cbr 500 ------- 0 0.0 1.0 112 112
r 1.064 0 1 cbr 500 ------- 0 0.0 1.0 110 110
+ 1.065 0 1 cbr 500 ------- 0 0.0 1.0 113 113
- 1.065 0 1 cbr 500 ------- 0 0.0 1.0 113 113
r 1.069 0 1 cbr 500 ------- 0 0.0 1.0 111 111
+ 1.07 0 1 cbr 500 ------- 0 0.0 1.0 114 114
- 1.07 0 1 cbr 500 ------- 0 0.0 1.0 114 114
r 1.074 0 1 cbr 500 ------- 0 0.0 1.0 112 112
+ 1.075 0 1 cbr 500 ------- 0 0.0 1.0 115 115
- 1.075 0 1 cbr 500 ------- 0 0.0 1.0 115 115
r 1.079 0 1 cbr 500 ------- 0 0.0 1.0 113 113
+ 1.08 0 1 cbr 500 ------- 0 0.0 1.0 116 116
- 1.08 0 1 cbr 500 ------- 0 0.0 1.0 116 116
r 1.084 0 1 cbr 500 ------- 0 0.0 1.0 114 114
+ 1.085 0 1 cbr 500 ------- 0 0.0 1.0 117 117
- 1.085 0 1 cbr 500 ------- 0 0.0 1.0 117 117
r 1.089 0 1 cbr 500 ------- 0 0.0 1.0 115 115
+ 1.09 0 1 cbr 500 ------- 0 0.0 1.0 118 118
- 1.09 0 1 cbr 500 ------- 0 0.0 1.0 118 118
r 1.094 0 1 cbr 500 ------- 0 0.0 1.0 116 116
+ 1.095 0 1 cbr 500 ------- 0 0.0 1.0 119 119
- 1.095 0 1 cbr 500 ------- 0 0.0 1.0 119 119
r 1.099 0 1 cbr 500 ------- 0 0.0 1.0 117 117
+ 1.1 0 1 cbr 500 ------- 0 0.0 1.0 120 120
- 1.1 0 1 cbr 500 ------- 0 0.0 1.0 120 120
r 1.104 0 1 cbr 500 ------- 0 0.0 1.0 118 118
+ 1.105 0 1 cbr 500 ------- 0 0.0 1.0 121 121
- 1.105 0 1 cbr 500 ------- 0 0.0 1.0 121 121
r 1.109 0 1 cbr 500 ------- 0 0.0 1.0 119 119
+ 1.11 0 1 cbr 500 ------- 0 0.0 1.0 122 122
- 1.11 0 1 cbr 500 ------- 0 0.0 1.0 122 122
r 1.114 0 1 cbr 500 ------- 0 0.0 1.0 120 120
+ 1.115 0 1 cbr 500 ------- 0 0.0 1.0 123 123
- 1.115 0 1 cbr 500 ------- 0 0.0 1.0 123 123
r 1.119 0 1 cbr 500 ------- 0 0.0 1.0 121 121
+ 1.12 0 1 cbr 500 ------- 0 0.0 1.0 124 124
- 1.12 0 1 cbr 500 ------- 0 0.0 1.0 124 124
r 1.124 0 1 cbr 500 ------- 0 0.0 1.0 122 122
+ 1.125 0 1 cbr 500 ------- 0 0.0 1.0 125 125
- 1.125 0 1 cbr 500 ------- 0 0.0 1.0 125 125
r 1.129 0 1 cbr 500 ------- 0 0.0 1.0 123 123
+ 1.13 0 1 cbr 500 ------- 0 0.0 1.0 126 126
- 1.13 0 1 cbr 500 ------- 0 0.0 1.0 126 126
r 1.134 0 1 cbr 500 ------- 0 0.0 1.0 124 124
+ 1.135 0 1 cbr 500 ------- 0 0.0 1.0 127 127
- 1.135 0 1 cbr 500 ------- 0 0.0 1.0 127 127
r 1.139 0 1 cbr 500 ------- 0 0.0 1.0 125 125
+ 1.14 0 1 cbr 500 ------- 0 0.0 1.0 128 128
- 1.14 0 1 cbr 500 ------- 0 0.0 1.0 128 128
r 1.144 0 1 cbr 500 ------- 0 0.0 1.0 126 126
+ 1.145 0 1 cbr 500 ------- 0 0.0 1.0 129 129
- 1.145 0 1 cbr 500 ------- 0 0.0 1.0 129 129
r 1.149 0 1 cbr 500 ------- 0 0.0 1.0 127 127
+ 1.15 0 1 cbr 500 ------- 0 0.0 1.0 130 130
- 1.15 0 1 cbr 500 ------- 0 0.0 1.0 130 130
r 1.154 0 1 cbr 500 ------- 0 0.0 1.0 128 128
+ 1.155 0 1 cbr 500 ------- 0 0.0 1.0 131 131
- 1.155 0 1 cbr 500 ------- 0 0.0 1.0 131 131
r 1.159 0 1 cbr 500 ------- 0 0.0 1.0 129 129
+ 1.16 0 1 cbr 500 ------- 0 0.0 1.0 132 132
- 1.16 0 1 cbr 500 ------- 0 0.0 1.0 132 132
r 1.164 0 1 cbr 500 ------- 0 0.0 1.0 130 130
+ 1.165 0 1 cbr 500 ------- 0 0.0 1.0 133 133
- 1.165 0 1 cbr 500 ------- 0 0.0 1.0 133 133
r 1.169 0 1 cbr 500 ------- 0 0.0 1.0 131 131
+ 1.17 0 1 cbr 500 ------- 0 0.0 1.0 134 134
- 1.17 0 1 cbr 500 ------- 0 0.0 1.0 134 134
r 1.174 0 1 cbr 500 ------- 0 0.0 1.0 132 132
+ 1.175 0 1 cbr 500 ------- 0 0.0 1.0 135 135
- 1.175 0 1 cbr 500 ------- 0 0.0 1.0 135 135
r 1.179 0 1 cbr 500 ------- 0 0.0 1.0 133 133
+ 1.18 0 1 cbr 500 ------- 0 0.0 1.0 136 136
- 1.18 0 1 cbr 500 ------- 0 0.0 1.0 136 136
r 1.184 0 1 cbr 500 ------- 0 0.0 1.0 134 134
+ 1.185 0 1 cbr 500 ------- 0 0.0 1.0 137 137
- 1.185 0 1 cbr 500 ------- 0 0.0 1.0 137 137
r 1.189 0 1 cbr 500 ------- 0 0.0 1.0 135 135
+ 1.19 0 1 cbr 500 ------- 0 0.0 1.0 138 138
- 1.19 0 1 cbr 500 ------- 0 0.0 1.0 138 138
r 1.194 0 1 cbr 500 ------- 0 0.0 1.0 136 136
+ 1.195 0 1 cbr 500 ------- 0 0.0 1.0 139 139
- 1.195 0 1 cbr 500 ------- 0 0.0 1.0 139 139
r 1.199 0 1 cbr 500 ------- 0 0.0 1.0 137 137
+ 1.2 0 1 cbr 500 ------- 0 0.0 1.0 140 140
- 1.2 0 1 cbr 500 ------- 0 0.0 1.0 140 140
r 1.204 0 1 cbr 500 ------- 0 0.0 1.0 138 138
+ 1.205 0 1 cbr 500 ------- 0 0.0 1.0 141 141
- 1.205 0 1 cbr 500 ------- 0 0.0 1.0 141 141
r 1.209 0 1 cbr 500 ------- 0 0.0 1.0 139 139
+ 1.21 0 1 cbr 500 ------- 0 0.0 1.0 142 142
- 1.21 0 1 cbr 500 ------- 0 0.0 1.0 142 142
r 1.214 0 1 cbr 500 ------- 0 0.0 1.0 140 140
+ 1.215 0 1 cbr 500 ------- 0 0.0 1.0 143 143
- 1.215 0 1 cbr 500 ------- 0 0.0 1.0 143 143
r 1.219 0 1 cbr 500 ------- 0 0.0 1.0 141 141
+ 1.22 0 1 cbr 500 ------- 0 0.0 1.0 144 144
- 1.22 0 1 cbr 500 ------- 0 0.0 1.0 144 144
r 1.224 0 1 cbr 500 ------- 0 0.0 1.0 142 142
+ 1.225 0 1 cbr 500 ------- 0 0.0 1.0 145 145
- 1.225 0 1 cbr 500 ------- 0 0.0 1.0 145 145
r 1.229 0 1 cbr 500 ------- 0 0.0 1.0 143 143
+ 1.23 0 1 cbr 500 ------- 0 0.0 1.0 146 146
- 1.23 0 1 cbr 500 ------- 0 0.0 1.0 146 146
r 1.234 0 1 cbr 500 ------- 0 0.0 1.0 144 144
+ 1.235 0 1 cbr 500 ------- 0 0.0 1.0 147 147
- 1.235 0 1 cbr 500 ------- 0 0.0 1.0 147 147
r 1.239 0 1 cbr 500 ------- 0 0.0 1.0 145 145
+ 1.24 0 1 cbr 500 ------- 0 0.0 1.0 148 148
- 1.24 0 1 cbr 500 ------- 0 0.0 1.0 148 148
r 1.244 0 1 cbr 500 ------- 0 0.0 1.0 146 146
+ 1.245 0 1 cbr 500 ------- 0 0.0 1.0 149 149
- 1.245 0 1 cbr 500 ------- 0 0.0 1.0 149 149
r 1.249 0 1 cbr 500 ------- 0 0.0 1.0 147 147
+ 1.25 0 1 cbr 500 ------- 0 0.0 1.0 150 150
- 1.25 0 1 cbr 500 ------- 0 0.0 1.0 150 150
r 1.254 0 1 cbr 500 ------- 0 0.0 1.0 148 148
+ 1.255 0 1 cbr 500 ------- 0 0.0 1.0 151 151
- 1.255 0 1 cbr 500 ------- 0 0.0 1.0 151 151
r 1.259 0 1 cbr 500 ------- 0 0.0 1.0 149 149
+ 1.26 0 1 cbr 500 ------- 0 0.0 1.0 152 152
- 1.26 0 1 cbr 500 ------- 0 0.0 1.0 152 152
r 1.264 0 1 cbr 500 ------- 0 0.0 1.0 150 150
+ 1.265 0 1 cbr 500 ------- 0 0.0 1.0 153 153
- 1.265 0 1 cbr 500 ------- 0 0.0 1.0 153 153
r 1.269 0 1 cbr 500 ------- 0 0.0 1.0 151 151
+ 1.27 0 1 cbr 500 ------- 0 0.0 1.0 154 154
- 1.27 0 1 cbr 500 ------- 0 0.0 1.0 154 154
r 1.274 0 1 cbr 500 ------- 0 0.0 1.0 152 152
+ 1.275 0 1 cbr 500 ------- 0 0.0 1.0 155 155
- 1.275 0 1 cbr 500 ------- 0 0.0 1.0 155 155
r 1.279 0 1 cbr 500 ------- 0 0.0 1.0 153 153
+ 1.28 0 1 cbr 500 ------- 0 0.0 1.0 156 156
- 1.28 0 1 cbr 500 ------- 0 0.0 1.0 156 156
r 1.284 0 1 cbr 500 ------- 0 0.0 1.0 154 154
+ 1.285 0 1 cbr 500 ------- 0 0.0 1.0 157 157
- 1.285 0 1 cbr 500 ------- 0 0.0 1.0 157 157
r 1.289 0 1 cbr 500 ------- 0 0.0 1.0 155 155
+ 1.29 0 1 cbr 500 ------- 0 0.0 1.0 158 158
- 1.29 0 1 cbr 500 ------- 0 0.0 1.0 158 158
r 1.294 0 1 cbr 500 ------- 0 0.0 1.0 156 156
+ 1.295 0 1 cbr 500 ------- 0 0.0 1.0 159 159
- 1.295 0 1 cbr 500 ------- 0 0.0 1.0 159 159
r 1.299 0 1 cbr 500 ------- 0 0.0 1.0 157 157
+ 1.3 0 1 cbr 500 ------- 0 0.0 1.0 160 160
- 1.3 0 1 cbr 500 ------- 0 0.0 1.0 160 160
r 1.304 0 1 cbr 500 ------- 0 0.0 1.0 158 158
+ 1.305 0 1 cbr 500 ------- 0 0.0 1.0 161 161
- 1.305 0 1 cbr 500 ------- 0 0.0 1.0 161 161
r 1.309 0 1 cbr 500 ------- 0 0.0 1.0 159 159
+ 1.31 0 1 cbr 500 ------- 0 0.0 1.0 162 162
- 1.31 0 1 cbr 500 ------- 0 0.0 1.0 162 162
r 1.314 0 1 cbr 500 ------- 0 0.0 1.0 160 160
+ 1.315 0 1 cbr 500 ------- 0 0.0 1.0 163 163
- 1.315 0 1 cbr 500 ------- 0 0.0 1.0 163 163
r 1.319 0 1 cbr 500 ------- 0 0.0 1.0 161 161
+ 1.32 0 1 cbr 500 ------- 0 0.0 1.0 164 164
- 1.32 0 1 cbr 500 ------- 0 0.0 1.0 164 164
r 1.324 0 1 cbr 500 ------- 0 0.0 1.0 162 162
+ 1.325 0 1 cbr 500 ------- 0 0.0 1.0 165 165
- 1.325 0 1 cbr 500 ------- 0 0.0 1.0 165 165
r 1.329 0 1 cbr 500 ------- 0 0.0 1.0 163 163
+ 1.33 0 1 cbr 500 ------- 0 0.0 1.0 166 166
- 1.33 0 1 cbr 500 ------- 0 0.0 1.0 166 166
r 1.334 0 1 cbr 500 ------- 0 0.0 1.0 164 164
+ 1.335 0 1 cbr 500 ------- 0 0.0 1.0 167 167
- 1.335 0 1 cbr 500 ------- 0 0.0 1.0 167 167
r 1.339 0 1 cbr 500 ------- 0 0.0 1.0 165 165
+ 1.34 0 1 cbr 500 ------- 0 0.0 1.0 168 168
- 1.34 0 1 cbr 500 ------- 0 0.0 1.0 168 168
r 1.344 0 1 cbr 500 ------- 0 0.0 1.0 166 166
+ 1.345 0 1 cbr 500 ------- 0 0.0 1.0 169 169
- 1.345 0 1 cbr 500 ------- 0 0.0 1.0 169 169
r 1.349 0 1 cbr 500 ------- 0 0.0 1.0 167 167
+ 1.35 0 1 cbr 500 ------- 0 0.0 1.0 170 170
- 1.35 0 1 cbr 500 ------- 0 0.0 1.0 170 170
r 1.354 0 1 cbr 500 ------- 0 0.0 1.0 168 168
+ 1.355 0 1 cbr 500 ------- 0 0.0 1.0 171 171
- 1.355 0 1 cbr 500 ------- 0 0.0 1.0 171 171
r 1.359 0 1 cbr 500 ------- 0 0.0 1.0 169 169
+ 1.36 0 1 cbr 500 ------- 0 0.0 1.0 172 172
- 1.36 0 1 cbr 500 ------- 0 0.0 1.0 172 172
r 1.364 0 1 cbr 500 ------- 0 0.0 1.0 170 170
+ 1.365 0 1 cbr 500 ------- 0 0.0 1.0 173 173
- 1.365 0 1 cbr 500 ------- 0 0.0 1.0 173 173
r 1.369 0 1 cbr 500 ------- 0 0.0 1.0 171 171
+ 1.37 0 1 cbr 500 ------- 0 0.0 1.0 174 174
- 1.37 0 1 cbr 500 ------- 0 0.0 1.0 174 174
r 1.374 0 1 cbr 500 ------- 0 0.0 1.0 172 172
+ 1.375 0 1 cbr 500 ------- 0 0.0 1.0 175 175
- 1.375 0 1 cbr 500 ------- 0 0.0 1.0 175 175
r 1.379 0 1 cbr 500 ------- 0 0.0 1.0 173 173
+ 1.38 0 1 cbr 500 ------- 0 0.0 1.0 176 176
- 1.38 0 1 cbr 500 ------- 0 0.0 1.0 176 176
r 1.384 0 1 cbr 500 ------- 0 0.0 1.0 174 174
+ 1.385 0 1 cbr 500 ------- 0 0.0 1.0 177 177
- 1.385 0 1 cbr 500 ------- 0 0.0 1.0 177 177
r 1.389 0 1 cbr 500 ------- 0 0.0 1.0 175 175
+ 1.39 0 1 cbr 500 ------- 0 0.0 1.0 178 178
- 1.39 0 1 cbr 500 ------- 0 0.0 1.0 178 178
r 1.394 0 1 cbr 500 ------- 0 0.0 1.0 176 176
+ 1.395 0 1 cbr 500 ------- 0 0.0 1.0 179 179
- 1.395 0 1 cbr 500 ------- 0 0.0 1.0 179 179
r 1.399 0 1 cbr 500 ------- 0 0.0 1.0 177 177
+ 1.4 0 1 cbr 500 ------- 0 0.0 1.0 180 180
- 1.4 0 1 cbr 500 ------- 0 0.0 1.0 180 180
r 1.404 0 1 cbr 500 ------- 0 0.0 1.0 178 178
+ 1.405 0 1 cbr 500 ------- 0 0.0 1.0 181 181
- 1.405 0 1 cbr 500 ------- 0 0.0 1.0 181 181
r 1.409 0 1 cbr 500 ------- 0 0.0 1.0 179 179
+ 1.41 0 1 cbr 500 ------- 0 0.0 1.0 182 182
- 1.41 0 1 cbr 500 ------- 0 0.0 1.0 182 182
r 1.414 0 1 cbr 500 ------- 0 0.0 1.0 180 180
+ 1.415 0 1 cbr 500 ------- 0 0.0 1.0 183 183
- 1.415 0 1 cbr 500 ------- 0 0.0 1.0 183 183
r 1.419 0 1 cbr 500 ------- 0 0.0 1.0 181 181
+ 1.42 0 1 cbr 500 ------- 0 0.0 1.0 184 184
- 1.42 0 1 cbr 500 ------- 0 0.0 1.0 184 184
r 1.424 0 1 cbr 500 ------- 0 0.0 1.0 182 182
+ 1.425 0 1 cbr 500 ------- 0 0.0 1.0 185 185
- 1.425 0 1 cbr 500 ------- 0 0.0 1.0 185 185
r 1.429 0 1 cbr 500 ------- 0 0.0 1.0 183 183
+ 1.43 0 1 cbr 500 ------- 0 0.0 1.0 186 186
- 1.43 0 1 cbr 500 ------- 0 0.0 1.0 186 186
r 1.434 0 1 cbr 500 ------- 0 0.0 1.0 184 184
+ 1.435 0 1 cbr 500 ------- 0 0.0 1.0 187 187
- 1.435 0 1 cbr 500 ------- 0 0.0 1.0 187 187
r 1.439 0 1 cbr 500 ------- 0 0.0 1.0 185 185
+ 1.44 0 1 cbr 500 ------- 0 0.0 1.0 188 188
- 1.44 0 1 cbr 500 ------- 0 0.0 1.0 188 188
r 1.444 0 1 cbr 500 ------- 0 0.0 1.0 186 186
+ 1.445 0 1 cbr 500 ------- 0 0.0 1.0 189 189
- 1.445 0 1 cbr 500 ------- 0 0.0 1.0 189 189
r 1.449 0 1 cbr 500 ------- 0 0.0 1.0 187 187
+ 1.45 0 1 cbr 500 ------- 0 0.0 1.0 190 190
- 1.45 0 1 cbr 500 ------- 0 0.0 1.0 190 190
r 1.454 0 1 cbr 500 ------- 0 0.0 1.0 188 188
+ 1.455 0 1 cbr 500 ------- 0 0.0 1.0 191 191
- 1.455 0 1 cbr 500 ------- 0 0.0 1.0 191 191
r 1.459 0 1 cbr 500 ------- 0 0.0 1.0 189 189
+ 1.46 0 1 cbr 500 ------- 0 0.0 1.0 192 192
- 1.46 0 1 cbr 500 ------- 0 0.0 1.0 192 192
r 1.464 0 1 cbr 500 ------- 0 0.0 1.0 190 190
+ 1.465 0 1 cbr 500 ------- 0 0.0 1.0 193 193
- 1.465 0 1 cbr 500 ------- 0 0.0 1.0 193 193
r 1.469 0 1 cbr 500 ------- 0 0.0 1.0 191 191
+ 1.47 0 1 cbr 500 ------- 0 0.0 1.0 194 194
- 1.47 0 1 cbr 500 ------- 0 0.0 1.0 194 194
r 1.474 0 1 cbr 500 ------- 0 0.0 1.0 192 192
+ 1.475 0 1 cbr 500 ------- 0 0.0 1.0 195 195
- 1.475 0 1 cbr 500 ------- 0 0.0 1.0 195 195
r 1.479 0 1 cbr 500 ------- 0 0.0 1.0 193 193
+ 1.48 0 1 cbr 500 ------- 0 0.0 1.0 196 196
- 1.48 0 1 cbr 500 ------- 0 0.0 1.0 196 196
r 1.484 0 1 cbr 500 ------- 0 0.0 1.0 194 194
+ 1.485 0 1 cbr 500 ------- 0 0.0 1.0 197 197
- 1.485 0 1 cbr 500 ------- 0 0.0 1.0 197 197
r 1.489 0 1 cbr 500 ------- 0 0.0 1.0 195 195
+ 1.49 0 1 cbr 500 ------- 0 0.0 1.0 198 198
- 1.49 0 1 cbr 500 ------- 0 0.0 1.0 198 198
r 1.494 0 1 cbr 500 ------- 0 0.0 1.0 196 196
+ 1.495 0 1 cbr 500 ------- 0 0.0 1.0 199 199
- 1.495 0 1 cbr 500 ------- 0 0.0 1.0 199 199
r 1.499 0 1 cbr 500 ------- 0 0.0 1.0 197 197
+ 1.5 0 1 cbr 500 ------- 0 0.0 1.0 200 200
- 1.5 0 1 cbr 500 ------- 0 0.0 1.0 200 200
r 1.504 0 1 cbr 500 ------- 0 0.0 1.0 198 198
+ 1.505 0 1 cbr 500 ------- 0 0.0 1.0 201 201
- 1.505 0 1 cbr 500 ------- 0 0.0 1.0 201 201
r 1.509 0 1 cbr 500 ------- 0 0.0 1.0 199 199
+ 1.51 0 1 cbr 500 ------- 0 0.0 1.0 202 202
- 1.51 0 1 cbr 500 ------- 0 0.0 1.0 202 202
r 1.514 0 1 cbr 500 ------- 0 0.0 1.0 200 200
+ 1.515 0 1 cbr 500 ------- 0 0.0 1.0 203 203
- 1.515 0 1 cbr 500 ------- 0 0.0 1.0 203 203
r 1.519 0 1 cbr 500 ------- 0 0.0 1.0 201 201
+ 1.52 0 1 cbr 500 ------- 0 0.0 1.0 204 204
- 1.52 0 1 cbr 500 ------- 0 0.0 1.0 204 204
r 1.524 0 1 cbr 500 ------- 0 0.0 1.0 202 202
+ 1.525 0 1 cbr 500 ------- 0 0.0 1.0 205 205
- 1.525 0 1 cbr 500 ------- 0 0.0 1.0 205 205
r 1.529 0 1 cbr 500 ------- 0 0.0 1.0 203 203
+ 1.53 0 1 cbr 500 ------- 0 0.0 1.0 206 206
- 1.53 0 1 cbr 500 ------- 0 0.0 1.0 206 206
r 1.534 0 1 cbr 500 ------- 0 0.0 1.0 204 204
+ 1.535 0 1 cbr 500 ------- 0 0.0 1.0 207 207
- 1.535 0 1 cbr 500 ------- 0 0.0 1.0 207 207
r 1.539 0 1 cbr 500 ------- 0 0.0 1.0 205 205
+ 1.54 0 1 cbr 500 ------- 0 0.0 1.0 208 208
- 1.54 0 1 cbr 500 ------- 0 0.0 1.0 208 208
r 1.544 0 1 cbr 500 ------- 0 0.0 1.0 206 206
+ 1.545 0 1 cbr 500 ------- 0 0.0 1.0 209 209
- 1.545 0 1 cbr 500 ------- 0 0.0 1.0 209 209
r 1.549 0 1 cbr 500 ------- 0 0.0 1.0 207 207
+ 1.55 0 1 cbr 500 ------- 0 0.0 1.0 210 210
- 1.55 0 1 cbr 500 ------- 0 0.0 1.0 210 210
r 1.554 0 1 cbr 500 ------- 0 0.0 1.0 208 208
+ 1.555 0 1 cbr 500 ------- 0 0.0 1.0 211 211
- 1.555 0 1 cbr 500 ------- 0 0.0 1.0 211 211
r 1.559 0 1 cbr 500 ------- 0 0.0 1.0 209 209
+ 1.56 0 1 cbr 500 ------- 0 0.0 1.0 212 212
- 1.56 0 1 cbr 500 ------- 0 0.0 1.0 212 212
r 1.564 0 1 cbr 500 ------- 0 0.0 1.0 210 210
+ 1.565 0 1 cbr 500 ------- 0 0.0 1.0 213 213
- 1.565 0 1 cbr 500 ------- 0 0.0 1.0 213 213
r 1.569 0 1 cbr 500 ------- 0 0.0 1.0 211 211
+ 1.57 0 1 cbr 500 ------- 0 0.0 1.0 214 214
- 1.57 0 1 cbr 500 ------- 0 0.0 1.0 214 214
r 1.574 0 1 cbr 500 ------- 0 0.0 1.0 212 212
+ 1.575 0 1 cbr 500 ------- 0 0.0 1.0 215 215
- 1.575 0 1 cbr 500 ------- 0 0.0 1.0 215 215
r 1.579 0 1 cbr 500 ------- 0 0.0 1.0 213 213
+ 1.58 0 1 cbr 500 ------- 0 0.0 1.0 216 216
- 1.58 0 1 cbr 500 ------- 0 0.0 1.0 216 216
r 1.584 0 1 cbr 500 ------- 0 0.0 1.0 214 214
+ 1.585 0 1 cbr 500 ------- 0 0.0 1.0 217 217
- 1.585 0 1 cbr 500 ------- 0 0.0 1.0 217 217
r 1.589 0 1 cbr 500 ------- 0 0.0 1.0 215 215
+ 1.59 0 1 cbr 500 ------- 0 0.0 1.0 218 218
- 1.59 0 1 cbr 500 ------- 0 0.0 1.0 218 218
r 1.594 0 1 cbr 500 ------- 0 0.0 1.0 216 216
+ 1.595 0 1 cbr 500 ------- 0 0.0 1.0 219 219
- 1.595 0 1 cbr 500 ------- 0 0.0 1.0 219 219
r 1.599 0 1 cbr 500 ------- 0 0.0 1.0 217 217
+ 1.6 0 1 cbr 500 ------- 0 0.0 1.0 220 220
- 1.6 0 1 cbr 500 ------- 0 0.0 1.0 220 220
r 1.604 0 1 cbr 500 ------- 0 0.0 1.0 218 218
+ 1.605 0 1 cbr 500 ------- 0 0.0 1.0 221 221
- 1.605 0 1 cbr 500 ------- 0 0.0 1.0 221 221
r 1.609 0 1 cbr 500 ------- 0 0.0 1.0 219 219
+ 1.61 0 1 cbr 500 ------- 0 0.0 1.0 222 222
- 1.61 0 1 cbr 500 ------- 0 0.0 1.0 222 222
r 1.614 0 1 cbr 500 ------- 0 0.0 1.0 220 220
+ 1.615 0 1 cbr 500 ------- 0 0.0 1.0 223 223
- 1.615 0 1 cbr 500 ------- 0 0.0 1.0 223 223
r 1.619 0 1 cbr 500 ------- 0 0.0 1.0 221 221
+ 1.62 0 1 cbr 500 ------- 0 0.0 1.0 224 224
- 1.62 0 1 cbr 500 ------- 0 0.0 1.0 224 224